
  ___ ___ ___ _ _ _  
 |   |   |_  | | | | 
 | | | | | . | | | | 
 |__ |  _|___|_____|  22.8.0
 |___|_|             

User:   nicog@vera45-3
Date:   Wed Feb 22 18:13:14 2023
Arch:   x86_64
Pid:    3937357
CWD:    /cephyr/users/nicog/Vera/Computational_Materials_2023/A4
Python: 3.10.4
gpaw:   /apps/Arch/software/GPAW/22.8.0-foss-2022a/lib/python3.10/site-packages/gpaw
_gpaw:  /apps/Arch/software/GPAW/22.8.0-foss-2022a/lib/python3.10/site-packages/
        _gpaw.cpython-310-x86_64-linux-gnu.so
ase:    /apps/Arch/software/ASE/3.22.1-foss-2022a/lib/python3.10/site-packages/ase (version 3.22.1)
numpy:  /apps/Arch/software/SciPy-bundle/2022.05-foss-2022a/lib/python3.10/site-packages/numpy (version 1.22.3)
scipy:  /apps/Arch/software/SciPy-bundle/2022.05-foss-2022a/lib/python3.10/site-packages/scipy (version 1.8.1)
libxc:  5.2.3
units:  Angstrom and eV
cores: 24
OpenMP: False
OMP_NUM_THREADS: 1

Input parameters:
  kpts: [1 1 1]
  mode: {ecut: 450.00000000000006,
         name: pw}
  spinpol: True
  xc: PBE

System changes: positions, numbers, cell, pbc, initial_charges, initial_magmoms 

Initialize ...

species:
  O:
    name: Oxygen
    id: 32ecd46bf208036f09c70b0ec9a88b78
    Z: 8.0
    valence: 6
    core: 2
    charge: 0.0
    file: /apps/Common/software/GPAW-setups/0.9.20000/O.PBE.gz
    compensation charges: {type: gauss,
                           rc: 0.21,
                           lmax: 2}
    cutoffs: {filter: 1.17,
              core: 0.83}
    valence states:
      #              energy  rcut
      - 2s(2.00)   -23.961   0.688
      - 2p(4.00)    -9.029   0.598
      -  s           3.251   0.688
      -  p          18.182   0.598
      -  d           0.000   0.619
  
    # Using partial waves for O as LCAO basis

Reference energy: -4081.704602  # eV

Spin-polarized calculation.
Magnetic moment: 1.700000

Convergence criteria:
 Maximum [total energy] change in last 3 cyles: 0.0005 eV / electron
 Maximum integral of absolute [dens]ity change: 0.0001 electrons / valence electron
 Maximum integral of absolute [eigenst]ate change: 4e-08 eV^2 / valence electron
 Maximum number of scf [iter]ations: 333
 (Square brackets indicate name in SCF output, whereas a 'c' in
 the SCF output indicates the quantity has converged.)

Symmetries present (total): 16

  ( 1  0  0)  ( 1  0  0)  ( 1  0  0)  ( 1  0  0)  ( 1  0  0)  ( 1  0  0)
  ( 0  1  0)  ( 0  1  0)  ( 0  0  1)  ( 0  0  1)  ( 0  0 -1)  ( 0  0 -1)
  ( 0  0  1)  ( 0  0 -1)  ( 0  1  0)  ( 0 -1  0)  ( 0  1  0)  ( 0 -1  0)

  ( 1  0  0)  ( 1  0  0)  (-1  0  0)  (-1  0  0)  (-1  0  0)  (-1  0  0)
  ( 0 -1  0)  ( 0 -1  0)  ( 0  1  0)  ( 0  1  0)  ( 0  0  1)  ( 0  0  1)
  ( 0  0  1)  ( 0  0 -1)  ( 0  0  1)  ( 0  0 -1)  ( 0  1  0)  ( 0 -1  0)

  (-1  0  0)  (-1  0  0)  (-1  0  0)  (-1  0  0)
  ( 0  0 -1)  ( 0  0 -1)  ( 0 -1  0)  ( 0 -1  0)
  ( 0  1  0)  ( 0 -1  0)  ( 0  0  1)  ( 0  0 -1)

1 k-point (Gamma)
1 k-point in the irreducible part of the Brillouin zone
       k-points in crystal coordinates                weights
   0:     0.00000000    0.00000000    0.00000000          1/1

Wave functions: Plane wave expansion
  Cutoff energy: 450.000 eV
  Number of coefficients: 37529 (reduced to 18765)
  Pulay-stress correction: 0.000000 eV/Ang^3 (de/decut=0.000000)
  Using FFTW library
  ScaLapack parameters: grid=1x1, blocksize=None
  Wavefunction extrapolation:
    Improved wavefunction reuse through dual PAW basis 

Occupation numbers: # Zero width 

Eigensolver
   Davidson(niter=2) 

Densities:
  Coarse grid: 60*60*60 grid
  Fine grid: 120*120*120 grid
  Total Charge: 0.000000 

Density mixing:
  Method: difference
  Backend: pulay
  Linear mixing parameter: 0.05
  old densities: 5
  Damping of long wavelength oscillations: 50 

Hamiltonian:
  XC and Coulomb potentials evaluated on a 120*120*120 grid
  Using the PBE Exchange-Correlation functional
  External potential:
    NoExternalPotential
 

XC parameters: PBE with 2 nearest neighbor stencil

Memory estimate:
  Process memory now: 310.50 MiB
  Calculator: 19.51 MiB
    Density: 5.01 MiB
      Arrays: 2.40 MiB
      Localized functions: 1.65 MiB
      Mixer: 0.96 MiB
    Hamiltonian: 1.82 MiB
      Arrays: 1.79 MiB
      XC: 0.00 MiB
      Poisson: 0.00 MiB
      vbar: 0.03 MiB
    Wavefunctions: 12.68 MiB
      Arrays psit_nG: 4.58 MiB
      Eigensolver: 3.73 MiB
      Projections: 0.00 MiB
      Projectors: 0.08 MiB
      PW-descriptor: 4.28 MiB

Total number of cores used: 24
Domain decomposition: 4 x 3 x 2

Number of atoms: 2
Number of atomic orbitals: 8
Number of bands in calculation: 8
Number of valence electrons: 12
Bands to converge: occupied

... initialized

Initializing position-dependent things.

Density initialized from atomic densities
Creating initial wave functions:
  8 bands from LCAO basis set

        .----------------------------.  
       /|                            |  
      / |                            |  
     /  |                            |  
    /   |                            |  
   /    |                            |  
  /     |                            |  
 *      |                            |  
 |      |                            |  
 |      |                            |  
 |      |                            |  
 |      |        O   O               |  
 |      |                            |  
 |      |                            |  
 |      |                            |  
 |      .----------------------------.  
 |     /                            /   
 |    /                            /    
 |   /                            /     
 |  /                            /      
 | /                            /       
 |/                            /        
 *----------------------------*         

Positions:
   0 O      5.000000    6.000000    6.000000    ( 0.0000,  0.0000,  0.8500)
   1 O      7.000000    6.000000    6.000000    ( 0.0000,  0.0000,  0.8500)

Unit cell:
           periodic     x           y           z      points  spacing
  1. axis:    no    12.000000    0.000000    0.000000    60     0.2000
  2. axis:    no     0.000000   12.000000    0.000000    60     0.2000
  3. axis:    no     0.000000    0.000000   12.000000    60     0.2000

  Lengths:  12.000000  12.000000  12.000000
  Angles:   90.000000  90.000000  90.000000

Effective grid spacing dv^(1/3) = 0.2000

     iter     time        total  log10-change:  magmom
                         energy  eigst   dens
iter:   1 18:13:17    -3.256709                  +1.6998
iter:   2 18:13:18    -3.476132  -1.69  -1.21    +1.9100
iter:   3 18:13:19    -3.395760  -1.52  -1.24    +2.0123
iter:   4 18:13:20    -3.411563  -2.14  -1.73    +2.0052
iter:   5 18:13:21    -3.393703  -2.03  -1.80    +1.9988
iter:   6 18:13:22    -3.387845  -2.76  -2.11    +2.0007
iter:   7 18:13:23    -3.387162  -4.21  -2.53    +2.0002
iter:   8 18:13:24    -3.387217c -5.02  -2.83    +2.0000
iter:   9 18:13:25    -3.387203c -5.35  -3.16    +2.0000
iter:  10 18:13:26    -3.387204c -6.47  -3.70    +2.0000
iter:  11 18:13:27    -3.387204c -7.30  -3.71    +2.0000
iter:  12 18:13:28    -3.387206c -7.18  -3.72    +2.0000
iter:  13 18:13:29    -3.387281c -5.05  -3.63    +2.0000
iter:  14 18:13:30    -3.387201c -5.06  -3.04    +2.0000
iter:  15 18:13:31    -3.387202c -6.03  -3.81    +2.0000
iter:  16 18:13:32    -3.387202c -6.42  -3.91    +2.0000
iter:  17 18:13:33    -3.387202c -7.06  -3.97    +2.0000
iter:  18 18:13:34    -3.387202c -8.65c -4.15c   +2.0000

Converged after 18 iterations.

Dipole moment: (-0.000000, -0.000000, -0.000000) |e|*Ang

Total magnetic moment: (0.000000, 0.000000, 2.000000)
Local magnetic moments:
   0 O  ( 0.000000,  0.000000,  0.702629)
   1 O  ( 0.000000,  0.000000,  0.702629)

Energy contributions relative to reference atoms: (reference = -4081.704602)

Kinetic:        -13.930561
Potential:      +11.320851
External:        +0.000000
XC:              -0.763322
Entropy (-ST):   +0.000000
Local:           -0.014170
--------------------------
Free energy:     -3.387202
Extrapolated:    -3.387202

Spin contamination: 0.027160 electrons
                   Up                     Down
 Band  Eigenvalues  Occupancy  Eigenvalues  Occupancy
    0    -25.84636    1.00000    -24.29242    1.00000
    1    -24.34698    1.00000    -22.63540    1.00000
    2    -11.28147    1.00000    -10.65147    1.00000
    3    -10.45162    1.00000     -8.55660    1.00000
    4    -10.45162    1.00000     -8.55660    1.00000
    5     -9.49161    1.00000     -7.42012    0.00000
    6     -9.49161    1.00000     -7.42012    0.00000
    7     -7.72008    0.00000     -6.94565    0.00000

Fermi level: -8.13834

Gap: 0.837 eV
Transition (v -> c):
  (s=1, k=0, n=4, [0.00, 0.00, 0.00]) -> (s=0, k=0, n=7, [0.00, 0.00, 0.00])
Timing:                              incl.     excl.
-----------------------------------------------------------
Hamiltonian:                         0.202     0.008   0.0% |
 Atomic:                             0.000     0.000   0.0% |
  XC Correction:                     0.000     0.000   0.0% |
 Calculate atomic Hamiltonians:      0.004     0.004   0.0% |
 Communicate:                        0.066     0.066   0.3% |
 Initialize Hamiltonian:             0.000     0.000   0.0% |
 Poisson:                            0.001     0.001   0.0% |
 XC 3D grid:                         0.123     0.123   0.6% |
LCAO initialization:                 0.100     0.022   0.1% |
 LCAO eigensolver:                   0.007     0.000   0.0% |
  Calculate projections:             0.000     0.000   0.0% |
  DenseAtomicCorrection:             0.000     0.000   0.0% |
  Distribute overlap matrix:         0.005     0.005   0.0% |
  Orbital Layouts:                   0.001     0.001   0.0% |
  Potential matrix:                  0.000     0.000   0.0% |
 LCAO to grid:                       0.040     0.040   0.2% |
 Set positions (LCAO WFS):           0.031     0.026   0.1% |
  Basic WFS set positions:           0.001     0.001   0.0% |
  Basis functions set positions:     0.000     0.000   0.0% |
  P tci:                             0.000     0.000   0.0% |
  ST tci:                            0.001     0.001   0.0% |
  mktci:                             0.002     0.002   0.0% |
PWDescriptor:                        0.690     0.690   3.4% ||
SCF-cycle:                          16.574     1.542   7.6% |--|
 Davidson:                           1.971     0.293   1.5% ||
  Apply H:                           0.292     0.290   1.4% ||
   HMM T:                            0.002     0.002   0.0% |
  Subspace diag:                     0.657     0.003   0.0% |
   calc_h_matrix:                    0.586     0.009   0.0% |
    Apply H:                         0.577     0.574   2.8% ||
     HMM T:                          0.002     0.002   0.0% |
   diagonalize:                      0.063     0.063   0.3% |
   rotate_psi:                       0.004     0.004   0.0% |
  calc. matrices:                    0.707     0.062   0.3% |
   Apply H:                          0.645     0.640   3.2% ||
    HMM T:                           0.004     0.004   0.0% |
  diagonalize:                       0.016     0.016   0.1% |
  rotate_psi:                        0.006     0.006   0.0% |
 Density:                            9.376     0.000   0.0% |
  Atomic density matrices:           0.021     0.021   0.1% |
  Mix:                               1.498     1.498   7.4% |--|
  Multipole moments:                 0.016     0.016   0.1% |
  Pseudo density:                    7.841     0.407   2.0% ||
   Symmetrize density:               7.433     7.433  36.8% |--------------|
 Hamiltonian:                        3.658     0.151   0.8% |
  Atomic:                            0.004     0.004   0.0% |
   XC Correction:                    0.000     0.000   0.0% |
  Calculate atomic Hamiltonians:     0.072     0.072   0.4% |
  Communicate:                       1.119     1.119   5.5% |-|
  Poisson:                           0.060     0.060   0.3% |
  XC 3D grid:                        2.252     2.252  11.2% |---|
 Orthonormalize:                     0.026     0.000   0.0% |
  calc_s_matrix:                     0.000     0.000   0.0% |
  inverse-cholesky:                  0.012     0.012   0.1% |
  projections:                       0.013     0.013   0.1% |
  rotate_psi_s:                      0.000     0.000   0.0% |
Set symmetry:                        0.003     0.003   0.0% |
Other:                               2.609     2.609  12.9% |----|
-----------------------------------------------------------
Total:                                        20.179 100.0%

Memory usage: 310.50 MiB
Date: Wed Feb 22 18:13:34 2023
