
  ___ ___ ___ _ _ _  
 |   |   |_  | | | | 
 | | | | | . | | | | 
 |__ |  _|___|_____|  22.8.0
 |___|_|             

User:   nicog@vera45-3
Date:   Wed Feb 22 18:13:34 2023
Arch:   x86_64
Pid:    3937357
CWD:    /cephyr/users/nicog/Vera/Computational_Materials_2023/A4
Python: 3.10.4
gpaw:   /apps/Arch/software/GPAW/22.8.0-foss-2022a/lib/python3.10/site-packages/gpaw
_gpaw:  /apps/Arch/software/GPAW/22.8.0-foss-2022a/lib/python3.10/site-packages/
        _gpaw.cpython-310-x86_64-linux-gnu.so
ase:    /apps/Arch/software/ASE/3.22.1-foss-2022a/lib/python3.10/site-packages/ase (version 3.22.1)
numpy:  /apps/Arch/software/SciPy-bundle/2022.05-foss-2022a/lib/python3.10/site-packages/numpy (version 1.22.3)
scipy:  /apps/Arch/software/SciPy-bundle/2022.05-foss-2022a/lib/python3.10/site-packages/scipy (version 1.8.1)
libxc:  5.2.3
units:  Angstrom and eV
cores: 24
OpenMP: False
OMP_NUM_THREADS: 1

Input parameters:
  kpts: [1 1 1]
  mode: {ecut: 450.00000000000006,
         name: pw}
  spinpol: True
  xc: PBE

System changes: positions, numbers, cell, pbc, initial_charges, initial_magmoms 

Initialize ...

species:
  C:
    name: Carbon
    id: 4aa54d4b901d75f77cc0ea3eec22967b
    Z: 6.0
    valence: 4
    core: 2
    charge: 0.0
    file: /apps/Common/software/GPAW-setups/0.9.20000/C.PBE.gz
    compensation charges: {type: gauss,
                           rc: 0.20,
                           lmax: 2}
    cutoffs: {filter: 1.14,
              core: 1.14}
    valence states:
      #              energy  rcut
      - 2s(2.00)   -13.751   0.635
      - 2p(2.00)    -5.284   0.635
      -  s          13.461   0.635
      -  p          21.927   0.635
      -  d           0.000   0.635
  
    # Using partial waves for C as LCAO basis

  O:
    name: Oxygen
    id: 32ecd46bf208036f09c70b0ec9a88b78
    Z: 8.0
    valence: 6
    core: 2
    charge: 0.0
    file: /apps/Common/software/GPAW-setups/0.9.20000/O.PBE.gz
    compensation charges: {type: gauss,
                           rc: 0.21,
                           lmax: 2}
    cutoffs: {filter: 1.17,
              core: 0.83}
    valence states:
      #              energy  rcut
      - 2s(2.00)   -23.961   0.688
      - 2p(4.00)    -9.029   0.598
      -  s           3.251   0.688
      -  p          18.182   0.598
      -  d           0.000   0.619
  
    # Using partial waves for O as LCAO basis

Reference energy: -3068.480417  # eV

Spin-polarized calculation.
Magnetic moment: 2.100000

Convergence criteria:
 Maximum [total energy] change in last 3 cyles: 0.0005 eV / electron
 Maximum integral of absolute [dens]ity change: 0.0001 electrons / valence electron
 Maximum integral of absolute [eigenst]ate change: 4e-08 eV^2 / valence electron
 Maximum number of scf [iter]ations: 333
 (Square brackets indicate name in SCF output, whereas a 'c' in
 the SCF output indicates the quantity has converged.)

Symmetries present (total): 8

  ( 1  0  0)  ( 1  0  0)  ( 1  0  0)  ( 1  0  0)  ( 1  0  0)  ( 1  0  0)
  ( 0  1  0)  ( 0  1  0)  ( 0  0  1)  ( 0  0  1)  ( 0  0 -1)  ( 0  0 -1)
  ( 0  0  1)  ( 0  0 -1)  ( 0  1  0)  ( 0 -1  0)  ( 0  1  0)  ( 0 -1  0)

  ( 1  0  0)  ( 1  0  0)
  ( 0 -1  0)  ( 0 -1  0)
  ( 0  0  1)  ( 0  0 -1)

1 k-point (Gamma)
1 k-point in the irreducible part of the Brillouin zone
       k-points in crystal coordinates                weights
   0:     0.00000000    0.00000000    0.00000000          1/1

Wave functions: Plane wave expansion
  Cutoff energy: 450.000 eV
  Number of coefficients: 37529 (reduced to 18765)
  Pulay-stress correction: 0.000000 eV/Ang^3 (de/decut=0.000000)
  Using FFTW library
  ScaLapack parameters: grid=1x1, blocksize=None
  Wavefunction extrapolation:
    Improved wavefunction reuse through dual PAW basis 

Occupation numbers: # Zero width 

Eigensolver
   Davidson(niter=2) 

Densities:
  Coarse grid: 60*60*60 grid
  Fine grid: 120*120*120 grid
  Total Charge: 0.000000 

Density mixing:
  Method: difference
  Backend: pulay
  Linear mixing parameter: 0.05
  old densities: 5
  Damping of long wavelength oscillations: 50 

Hamiltonian:
  XC and Coulomb potentials evaluated on a 120*120*120 grid
  Using the PBE Exchange-Correlation functional
  External potential:
    NoExternalPotential
 

XC parameters: PBE with 2 nearest neighbor stencil

Memory estimate:
  Process memory now: 314.55 MiB
  Calculator: 19.98 MiB
    Density: 5.44 MiB
      Arrays: 2.40 MiB
      Localized functions: 2.07 MiB
      Mixer: 0.96 MiB
    Hamiltonian: 1.84 MiB
      Arrays: 1.79 MiB
      XC: 0.00 MiB
      Poisson: 0.00 MiB
      vbar: 0.05 MiB
    Wavefunctions: 12.71 MiB
      Arrays psit_nG: 4.58 MiB
      Eigensolver: 3.73 MiB
      Projections: 0.00 MiB
      Projectors: 0.11 MiB
      PW-descriptor: 4.28 MiB

Total number of cores used: 24
Domain decomposition: 4 x 3 x 2

Number of atoms: 2
Number of atomic orbitals: 8
Number of bands in calculation: 8
Number of valence electrons: 10
Bands to converge: occupied

... initialized

Initializing position-dependent things.

Density initialized from atomic densities
Creating initial wave functions:
  8 bands from LCAO basis set

        .----------------------------.  
       /|                            |  
      / |                            |  
     /  |                            |  
    /   |                            |  
   /    |                            |  
  /     |                            |  
 *      |                            |  
 |      |                            |  
 |      |                            |  
 |      |                            |  
 |      |        C   O               |  
 |      |                            |  
 |      |                            |  
 |      |                            |  
 |      .----------------------------.  
 |     /                            /   
 |    /                            /    
 |   /                            /     
 |  /                            /      
 | /                            /       
 |/                            /        
 *----------------------------*         

Positions:
   0 C      5.000000    6.000000    6.000000    ( 0.0000,  0.0000,  1.2500)
   1 O      7.000000    6.000000    6.000000    ( 0.0000,  0.0000,  0.8500)

Unit cell:
           periodic     x           y           z      points  spacing
  1. axis:    no    12.000000    0.000000    0.000000    60     0.2000
  2. axis:    no     0.000000   12.000000    0.000000    60     0.2000
  3. axis:    no     0.000000    0.000000   12.000000    60     0.2000

  Lengths:  12.000000  12.000000  12.000000
  Angles:   90.000000  90.000000  90.000000

Effective grid spacing dv^(1/3) = 0.2000

     iter     time        total  log10-change:  magmom
                         energy  eigst   dens
iter:   1 18:13:35    -7.306898                  +2.0960
iter:   2 18:13:36    -6.315322  -1.48  -0.59    +0.6288
iter:   3 18:13:36    -6.351041  -1.34  -0.72    -0.0156
iter:   4 18:13:37    -6.717259  -1.39  -0.62    -0.0096
iter:   5 18:13:38    -5.993327  -1.89  -0.68    -0.0028
iter:   6 18:13:39    -5.651391  -2.56  -0.85    +0.0004
iter:   7 18:13:39    -5.666201  -3.72  -1.08    +0.0002
iter:   8 18:13:40    -5.537607  -2.38  -1.06    +0.0000
iter:   9 18:13:41    -5.531166  -3.73  -1.53    +0.0001
iter:  10 18:13:41    -5.526075  -4.37  -1.67    +0.0000
iter:  11 18:13:42    -5.525460  -4.98  -2.02    +0.0000
iter:  12 18:13:42    -5.524860c -4.73  -2.18    +0.0000
iter:  13 18:13:43    -5.524853c -6.17  -3.01    -0.0000
iter:  14 18:13:43    -5.524855c -6.28  -3.29    -0.0000
iter:  15 18:13:44    -5.524854c -7.52c -3.42    -0.0000
iter:  16 18:13:45    -5.524851c -6.28  -3.47    -0.0000
iter:  17 18:13:46    -5.524851c -6.96  -3.73    +0.0000
iter:  18 18:13:46    -5.524851c -7.78c -3.85    +0.0000
iter:  19 18:13:47    -5.524851c -7.19  -3.90    +0.0000
iter:  20 18:13:48    -5.524851c -7.93c -4.19c   +0.0000

Converged after 20 iterations.

Dipole moment: (-0.467085, -0.000000, -0.000000) |e|*Ang

Total magnetic moment: (0.000000, 0.000000, 0.000002)
Local magnetic moments:
   0 C  ( 0.000000,  0.000000,  0.000033)
   1 O  ( 0.000000,  0.000000, -0.000064)

Energy contributions relative to reference atoms: (reference = -3068.480417)

Kinetic:        -13.677225
Potential:       +8.777261
External:        +0.000000
XC:              -0.614142
Entropy (-ST):   +0.000000
Local:           -0.010745
--------------------------
Free energy:     -5.524851
Extrapolated:    -5.524851

Spin contamination: 0.000093 electrons
                   Up                     Down
 Band  Eigenvalues  Occupancy  Eigenvalues  Occupancy
    0    -22.70171    1.00000    -22.70186    1.00000
    1    -15.04379    1.00000    -15.04367    1.00000
    2     -8.69482    1.00000     -8.69488    1.00000
    3     -7.80634    1.00000     -7.80639    1.00000
    4     -7.80634    1.00000     -7.80639    1.00000
    5     -6.09340    0.00000     -6.09337    0.00000
    6     -6.09340    0.00000     -6.09337    0.00000
    7     -3.87851    0.00000     -3.87847    0.00000

Fermi level: -6.94987

Gap: 1.713 eV
Transition (v -> c):
  (s=0, k=0, n=4, [0.00, 0.00, 0.00]) -> (s=0, k=0, n=5, [0.00, 0.00, 0.00])
Timing:                              incl.     excl.
-----------------------------------------------------------
Hamiltonian:                         0.191     0.006   0.0% |
 Atomic:                             0.000     0.000   0.0% |
  XC Correction:                     0.000     0.000   0.0% |
 Calculate atomic Hamiltonians:      0.004     0.004   0.0% |
 Communicate:                        0.066     0.066   0.5% |
 Initialize Hamiltonian:             0.000     0.000   0.0% |
 Poisson:                            0.001     0.001   0.0% |
 XC 3D grid:                         0.114     0.114   0.8% |
LCAO initialization:                 0.213     0.075   0.5% |
 LCAO eigensolver:                   0.044     0.000   0.0% |
  Calculate projections:             0.000     0.000   0.0% |
  DenseAtomicCorrection:             0.000     0.000   0.0% |
  Distribute overlap matrix:         0.030     0.030   0.2% |
  Orbital Layouts:                   0.013     0.013   0.1% |
  Potential matrix:                  0.000     0.000   0.0% |
 LCAO to grid:                       0.039     0.039   0.3% |
 Set positions (LCAO WFS):           0.055     0.052   0.4% |
  Basic WFS set positions:           0.001     0.001   0.0% |
  Basis functions set positions:     0.000     0.000   0.0% |
  P tci:                             0.000     0.000   0.0% |
  ST tci:                            0.000     0.000   0.0% |
  mktci:                             0.001     0.001   0.0% |
PWDescriptor:                        0.013     0.013   0.1% |
SCF-cycle:                          12.850     0.094   0.7% |
 Davidson:                           2.549     0.363   2.6% ||
  Apply H:                           0.429     0.427   3.1% ||
   HMM T:                            0.003     0.003   0.0% |
  Subspace diag:                     0.935     0.003   0.0% |
   calc_h_matrix:                    0.844     0.010   0.1% |
    Apply H:                         0.834     0.832   6.0% |-|
     HMM T:                          0.003     0.003   0.0% |
   diagonalize:                      0.083     0.083   0.6% |
   rotate_psi:                       0.005     0.005   0.0% |
  calc. matrices:                    0.799     0.142   1.0% |
   Apply H:                          0.656     0.652   4.7% |-|
    HMM T:                           0.005     0.005   0.0% |
  diagonalize:                       0.018     0.018   0.1% |
  rotate_psi:                        0.006     0.006   0.0% |
 Density:                            6.214     0.000   0.0% |
  Atomic density matrices:           0.017     0.017   0.1% |
  Mix:                               1.668     1.668  12.0% |----|
  Multipole moments:                 0.008     0.008   0.1% |
  Pseudo density:                    4.521     0.335   2.4% ||
   Symmetrize density:               4.186     4.186  30.1% |-----------|
 Hamiltonian:                        3.990     0.120   0.9% |
  Atomic:                            0.004     0.004   0.0% |
   XC Correction:                    0.000     0.000   0.0% |
  Calculate atomic Hamiltonians:     0.129     0.129   0.9% |
  Communicate:                       1.217     1.217   8.8% |---|
  Poisson:                           0.050     0.050   0.4% |
  XC 3D grid:                        2.470     2.470  17.8% |------|
 Orthonormalize:                     0.002     0.000   0.0% |
  calc_s_matrix:                     0.000     0.000   0.0% |
  inverse-cholesky:                  0.000     0.000   0.0% |
  projections:                       0.001     0.001   0.0% |
  rotate_psi_s:                      0.000     0.000   0.0% |
Set symmetry:                        0.003     0.003   0.0% |
Other:                               0.629     0.629   4.5% |-|
-----------------------------------------------------------
Total:                                        13.898 100.0%

Memory usage: 325.45 MiB
Date: Wed Feb 22 18:13:48 2023
