
  ___ ___ ___ _ _ _  
 |   |   |_  | | | | 
 | | | | | . | | | | 
 |__ |  _|___|_____|  22.8.0
 |___|_|             

User:   nicog@vera22-2
Date:   Wed Feb 22 20:03:07 2023
Arch:   x86_64
Pid:    2295360
CWD:    /cephyr/users/nicog/Vera/Computational_Materials_2023/A4
Python: 3.10.4
gpaw:   /apps/Arch/software/GPAW/22.8.0-foss-2022a/lib/python3.10/site-packages/gpaw
_gpaw:  /apps/Arch/software/GPAW/22.8.0-foss-2022a/lib/python3.10/site-packages/
        _gpaw.cpython-310-x86_64-linux-gnu.so
ase:    /apps/Arch/software/ASE/3.22.1-foss-2022a/lib/python3.10/site-packages/ase (version 3.22.1)
numpy:  /apps/Arch/software/SciPy-bundle/2022.05-foss-2022a/lib/python3.10/site-packages/numpy (version 1.22.3)
scipy:  /apps/Arch/software/SciPy-bundle/2022.05-foss-2022a/lib/python3.10/site-packages/scipy (version 1.8.1)
libxc:  5.2.3
units:  Angstrom and eV
cores: 1
OpenMP: False
OMP_NUM_THREADS: 1

Input parameters:
  kpts: [1 1 1]
  mode: {ecut: 450.00000000000006,
         name: pw}
  spinpol: True
  symmetry: {point_group: False}
  xc: PBE

System changes: positions, numbers, cell, pbc, initial_charges, initial_magmoms 

Initialize ...

species:
  O:
    name: Oxygen
    id: 32ecd46bf208036f09c70b0ec9a88b78
    Z: 8.0
    valence: 6
    core: 2
    charge: 0.0
    file: /apps/Common/software/GPAW-setups/0.9.20000/O.PBE.gz
    compensation charges: {type: gauss,
                           rc: 0.21,
                           lmax: 2}
    cutoffs: {filter: 1.17,
              core: 0.83}
    valence states:
      #              energy  rcut
      - 2s(2.00)   -23.961   0.688
      - 2p(4.00)    -9.029   0.598
      -  s           3.251   0.688
      -  p          18.182   0.598
      -  d           0.000   0.619
  
    # Using partial waves for O as LCAO basis

Reference energy: -4081.704602  # eV

Spin-polarized calculation.
Magnetic moment: 3.400000

Convergence criteria:
 Maximum [total energy] change in last 3 cyles: 0.0005 eV / electron
 Maximum integral of absolute [dens]ity change: 0.0001 electrons / valence electron
 Maximum integral of absolute [eigenst]ate change: 4e-08 eV^2 / valence electron
 Maximum number of scf [iter]ations: 333
 (Square brackets indicate name in SCF output, whereas a 'c' in
 the SCF output indicates the quantity has converged.)

Symmetries present (total): 1

  ( 1  0  0)
  ( 0  1  0)
  ( 0  0  1)

1 k-point (Gamma)
1 k-point in the irreducible part of the Brillouin zone
       k-points in crystal coordinates                weights
   0:     0.00000000    0.00000000    0.00000000          1/1

Wave functions: Plane wave expansion
  Cutoff energy: 450.000 eV
  Number of coefficients: 37529 (reduced to 18765)
  Pulay-stress correction: 0.000000 eV/Ang^3 (de/decut=0.000000)
  Using FFTW library
  ScaLapack parameters: grid=1x1, blocksize=None
  Wavefunction extrapolation:
    Improved wavefunction reuse through dual PAW basis 

Occupation numbers: # Zero width 

Eigensolver
   Davidson(niter=2) 

Densities:
  Coarse grid: 60*60*60 grid
  Fine grid: 120*120*120 grid
  Total Charge: 0.000000 

Density mixing:
  Method: difference
  Backend: pulay
  Linear mixing parameter: 0.05
  old densities: 5
  Damping of long wavelength oscillations: 50 

Hamiltonian:
  XC and Coulomb potentials evaluated on a 120*120*120 grid
  Using the PBE Exchange-Correlation functional
  External potential:
    NoExternalPotential
 

XC parameters: PBE with 2 nearest neighbor stencil

Memory estimate:
  Process memory now: 311.16 MiB
  Calculator: 178.82 MiB
    Density: 120.36 MiB
      Arrays: 57.68 MiB
      Localized functions: 39.61 MiB
      Mixer: 23.07 MiB
    Hamiltonian: 43.66 MiB
      Arrays: 42.85 MiB
      XC: 0.00 MiB
      Poisson: 0.00 MiB
      vbar: 0.81 MiB
    Wavefunctions: 14.80 MiB
      Arrays psit_nG: 4.58 MiB
      Eigensolver: 3.73 MiB
      Projections: 0.00 MiB
      Projectors: 2.00 MiB
      PW-descriptor: 4.49 MiB

Total number of cores used: 1

Number of atoms: 2
Number of atomic orbitals: 8
Number of bands in calculation: 8
Number of valence electrons: 12
Bands to converge: occupied

... initialized

Initializing position-dependent things.

Density initialized from atomic densities
Creating initial wave functions:
  8 bands from LCAO basis set

        .----------------------------.  
       /|                            |  
      / |                            |  
     /  |                            |  
    /   |                            |  
   /    |                            |  
  /     |                            |  
 *      |                            |  
 |      |                            |  
 |      |                            |  
 |      |                            |  
 |      |        O   O               |  
 |      |                            |  
 |      |                            |  
 |      |                            |  
 |      .----------------------------.  
 |     /                            /   
 |    /                            /    
 |   /                            /     
 |  /                            /      
 | /                            /       
 |/                            /        
 *----------------------------*         

Positions:
   0 O      5.000000    6.000000    6.000000    ( 0.0000,  0.0000,  1.7000)
   1 O      7.000000    6.000000    6.000000    ( 0.0000,  0.0000,  1.7000)

Unit cell:
           periodic     x           y           z      points  spacing
  1. axis:    no    12.000000    0.000000    0.000000    60     0.2000
  2. axis:    no     0.000000   12.000000    0.000000    60     0.2000
  3. axis:    no     0.000000    0.000000   12.000000    60     0.2000

  Lengths:  12.000000  12.000000  12.000000
  Angles:   90.000000  90.000000  90.000000

Effective grid spacing dv^(1/3) = 0.2000

     iter     time        total  log10-change:  magmom
                         energy  eigst   dens
iter:   1 20:03:13    -2.998316                  +3.3997
iter:   2 20:03:15    -3.454630  -1.80  -1.21    +2.4199
iter:   3 20:03:17    -3.396233  -1.54  -1.24    +1.9894
iter:   4 20:03:19    -3.399237  -2.50  -1.75    +1.9966
iter:   5 20:03:21    -3.460606  -2.05  -1.80    +2.0010
iter:   6 20:03:22    -3.386182  -1.95  -1.54    +2.0003
iter:   7 20:03:24    -3.387026  -2.90  -2.61    +2.0002
iter:   8 20:03:26    -3.387143c -3.52  -2.82    +1.9998
iter:   9 20:03:28    -3.387246c -4.39  -2.63    +2.0000
iter:  10 20:03:30    -3.387249c -5.41  -3.13    +2.0000
iter:  11 20:03:32    -3.387254c -5.94  -3.13    +2.0000
iter:  12 20:03:34    -3.387227c -5.99  -3.09    +2.0000
iter:  13 20:03:36    -3.387203c -5.48  -3.24    +2.0000
iter:  14 20:03:38    -3.387202c -5.82  -3.77    +2.0000
iter:  15 20:03:40    -3.387202c -7.08  -3.87    +2.0000
iter:  16 20:03:42    -3.387201c -7.16  -3.99    +2.0000
iter:  17 20:03:44    -3.387202c -7.37  -3.97    +2.0000
iter:  18 20:03:46    -3.387202c -7.96c -4.06c   +2.0000

Converged after 18 iterations.

Dipole moment: (-0.000037, -0.000000, 0.000000) |e|*Ang

Total magnetic moment: (0.000000, 0.000000, 2.000000)
Local magnetic moments:
   0 O  ( 0.000000,  0.000000,  0.702784)
   1 O  ( 0.000000,  0.000000,  0.702361)

Energy contributions relative to reference atoms: (reference = -4081.704602)

Kinetic:        -13.926338
Potential:      +11.318349
External:        +0.000000
XC:              -0.765293
Entropy (-ST):   +0.000000
Local:           -0.013921
--------------------------
Free energy:     -3.387202
Extrapolated:    -3.387202

Spin contamination: 0.027161 electrons
                   Up                     Down
 Band  Eigenvalues  Occupancy  Eigenvalues  Occupancy
    0    -25.84524    1.00000    -24.29136    1.00000
    1    -24.34580    1.00000    -22.63427    1.00000
    2    -11.28021    1.00000    -10.65025    1.00000
    3    -10.45060    1.00000     -8.55566    1.00000
    4    -10.45060    1.00000     -8.55566    1.00000
    5     -9.49053    1.00000     -7.41913    0.00000
    6     -9.49053    1.00000     -7.41913    0.00000
    7     -7.71875    0.00000     -6.94437    0.00000

Fermi level: -8.13720

Gap: 0.837 eV
Transition (v -> c):
  (s=1, k=0, n=4, [0.00, 0.00, 0.00]) -> (s=0, k=0, n=7, [0.00, 0.00, 0.00])
System changes: positions 

Initializing position-dependent things.

Density initialized from wave functions
        .----------------------------.  
       /|                            |  
      / |                            |  
     /  |                            |  
    /   |                            |  
   /    |                            |  
  /     |                            |  
 *      |                            |  
 |      |                            |  
 |      |                            |  
 |      |                            |  
 |      |        O   O               |  
 |      |                            |  
 |      |                            |  
 |      |                            |  
 |      .----------------------------.  
 |     /                            /   
 |    /                            /    
 |   /                            /     
 |  /                            /      
 | /                            /       
 |/                            /        
 *----------------------------*         

Positions:
   0 O      5.010000    6.000000    6.000000    ( 0.0000,  0.0000,  1.7000)
   1 O      7.000000    6.000000    6.000000    ( 0.0000,  0.0000,  1.7000)

Unit cell:
           periodic     x           y           z      points  spacing
  1. axis:    no    12.000000    0.000000    0.000000    60     0.2000
  2. axis:    no     0.000000   12.000000    0.000000    60     0.2000
  3. axis:    no     0.000000    0.000000   12.000000    60     0.2000

  Lengths:  12.000000  12.000000  12.000000
  Angles:   90.000000  90.000000  90.000000

Effective grid spacing dv^(1/3) = 0.2000

     iter     time        total  log10-change:  magmom
                         energy  eigst   dens
iter:   1 20:03:48    -3.449693  -4.10           +1.9965
iter:   2 20:03:50    -3.449474  -4.98  -2.50    +1.9990
iter:   3 20:03:52    -3.449430c -5.21  -2.70    +1.9999
iter:   4 20:03:54    -3.449501c -5.58  -2.88    +1.9998
iter:   5 20:03:56    -3.449322c -5.07  -2.62    +1.9999
iter:   6 20:03:58    -3.449328c -6.17  -3.39    +2.0000
iter:   7 20:04:00    -3.449320c -6.99  -4.03c   +2.0000
iter:   8 20:04:02    -3.449309c -6.69  -3.57    +2.0000
iter:   9 20:04:04    -3.449301c -6.70  -3.31    +2.0000
iter:  10 20:04:06    -3.449308c -6.70  -3.09    +2.0000
iter:  11 20:04:08    -3.449327c -5.83  -3.04    +2.0000
iter:  12 20:04:10    -3.449343c -5.76  -3.03    +2.0000
iter:  13 20:04:12    -3.449347c -6.27  -3.04    +2.0000
iter:  14 20:04:14    -3.449393c -4.20  -3.07    +2.0000
iter:  15 20:04:16    -3.449389c -6.18  -3.51    +2.0000
iter:  16 20:04:18    -3.449392c -5.99  -4.08c   +2.0000
iter:  17 20:04:20    -3.449387c -5.79  -3.70    +2.0000
iter:  18 20:04:22    -3.449381c -5.71  -3.80    +2.0000
iter:  19 20:04:24    -3.449384c -6.73  -4.16c   +2.0000
iter:  20 20:04:26    -3.449384c -8.71c -4.19c   +2.0000

Converged after 20 iterations.

Dipole moment: (-0.003023, 0.000000, -0.000000) |e|*Ang

Total magnetic moment: (0.000000, 0.000000, 2.000000)
Local magnetic moments:
   0 O  ( 0.000000,  0.000000,  0.724639)
   1 O  ( 0.000000,  0.000000,  0.681329)

Energy contributions relative to reference atoms: (reference = -4081.704602)

Kinetic:        -13.945563
Potential:      +11.303413
External:        +0.000000
XC:              -0.795178
Entropy (-ST):   +0.000000
Local:           -0.012056
--------------------------
Free energy:     -3.449384
Extrapolated:    -3.449384

Spin contamination: 0.028907 electrons
                   Up                     Down
 Band  Eigenvalues  Occupancy  Eigenvalues  Occupancy
    0    -25.87046    1.00000    -24.31733    1.00000
    1    -24.32747    1.00000    -22.61499    1.00000
    2    -11.30554    1.00000    -10.67449    1.00000
    3    -10.46375    1.00000     -8.56836    1.00000
    4    -10.46375    1.00000     -8.56836    1.00000
    5     -9.47952    1.00000     -7.40653    0.00000
    6     -9.47952    1.00000     -7.40653    0.00000
    7     -7.67300    0.00000     -6.89764    0.00000

Fermi level: -8.12068

Gap: 0.895 eV
Transition (v -> c):
  (s=1, k=0, n=4, [0.00, 0.00, 0.00]) -> (s=0, k=0, n=7, [0.00, 0.00, 0.00])

Forces in eV/Ang:
  0 O     6.26183    0.00000   -0.00000
  1 O    -6.26523    0.00000   -0.00000

System changes: positions 

Initializing position-dependent things.

Density initialized from wave functions
        .----------------------------.  
       /|                            |  
      / |                            |  
     /  |                            |  
    /   |                            |  
   /    |                            |  
  /     |                            |  
 *      |                            |  
 |      |                            |  
 |      |                            |  
 |      |                            |  
 |      |        O   O               |  
 |      |                            |  
 |      |                            |  
 |      |                            |  
 |      .----------------------------.  
 |     /                            /   
 |    /                            /    
 |   /                            /     
 |  /                            /      
 | /                            /       
 |/                            /        
 *----------------------------*         

Positions:
   0 O      5.000000    5.990000    6.000000    ( 0.0000,  0.0000,  1.7000)
   1 O      7.000000    6.000000    6.000000    ( 0.0000,  0.0000,  1.7000)

Unit cell:
           periodic     x           y           z      points  spacing
  1. axis:    no    12.000000    0.000000    0.000000    60     0.2000
  2. axis:    no     0.000000   12.000000    0.000000    60     0.2000
  3. axis:    no     0.000000    0.000000   12.000000    60     0.2000

  Lengths:  12.000000  12.000000  12.000000
  Angles:   90.000000  90.000000  90.000000

Effective grid spacing dv^(1/3) = 0.2000

     iter     time        total  log10-change:  magmom
                         energy  eigst   dens
iter:   1 20:04:28    -3.387375  -3.95           +2.0035
iter:   2 20:04:30    -3.387111  -4.87  -2.46    +2.0010
iter:   3 20:04:32    -3.387063c -5.18  -2.65    +2.0002
iter:   4 20:04:34    -3.387142c -5.57  -2.78    +2.0003
iter:   5 20:04:36    -3.386916c -4.96  -2.57    +2.0001
iter:   6 20:04:38    -3.386919c -6.20  -3.48    +2.0000
iter:   7 20:04:40    -3.386911c -6.92  -3.89    +2.0000
iter:   8 20:04:42    -3.386899c -6.79  -3.39    +2.0000
iter:   9 20:04:44    -3.386885c -6.01  -3.23    +2.0000
iter:  10 20:04:46    -3.386897c -6.56  -2.81    +2.0000
iter:  11 20:04:48    -3.386942c -5.08  -2.86    +2.0000
iter:  12 20:04:50    -3.386906c -5.52  -3.48    +2.0000
iter:  13 20:04:52    -3.386910c -7.73c -2.97    +2.0000
iter:  14 20:04:54    -3.386934c -5.22  -3.00    +2.0000
iter:  15 20:04:56    -3.386908c -5.46  -3.88    +2.0000
iter:  16 20:04:58    -3.386911c -6.88  -3.16    +2.0000
iter:  17 20:05:00    -3.386913c -6.47  -3.34    +2.0000
iter:  18 20:05:02    -3.386916c -6.72  -2.99    +2.0000
iter:  19 20:05:04    -3.386936c -5.06  -3.02    +2.0000
iter:  20 20:05:06    -3.386939c -5.69  -3.35    +2.0000
iter:  21 20:05:08    -3.386938c -7.00  -3.44    +2.0000
iter:  22 20:05:10    -3.386939c -7.27  -3.46    +2.0000
iter:  23 20:05:12    -3.386938c -6.81  -3.49    +2.0000
iter:  24 20:05:14    -3.386941c -7.24  -3.40    +2.0000
iter:  25 20:05:16    -3.386937c -6.73  -3.26    +2.0000
iter:  26 20:05:18    -3.386939c -7.49c -3.54    +2.0000
iter:  27 20:05:20    -3.386936c -7.11  -3.40    +2.0000
iter:  28 20:05:22    -3.386936c -8.03c -3.64    +2.0000
iter:  29 20:05:24    -3.386937c -6.82  -3.54    +2.0000
iter:  30 20:05:26    -3.386940c -6.08  -3.40    +2.0000
iter:  31 20:05:28    -3.386951c -5.49  -3.48    +2.0000
iter:  32 20:05:30    -3.386960c -6.48  -3.05    +2.0000
iter:  33 20:05:32    -3.386941c -6.61  -2.98    +2.0000
iter:  34 20:05:34    -3.386950c -6.97  -3.14    +2.0000
iter:  35 20:05:37    -3.386954c -7.22  -3.03    +2.0000
iter:  36 20:05:39    -3.386946c -6.39  -3.00    +2.0000
iter:  37 20:05:41    -3.386959c -7.00  -3.03    +2.0000
iter:  38 20:05:43    -3.386950c -6.46  -2.94    +2.0000
iter:  39 20:05:45    -3.386937c -6.10  -2.98    +2.0000
iter:  40 20:05:47    -3.386985c -6.22  -3.06    +2.0000
iter:  41 20:05:49    -3.386977c -7.10  -2.82    +2.0000
iter:  42 20:05:51    -3.386957c -5.45  -2.87    +2.0000
iter:  43 20:05:53    -3.386942c -6.11  -2.85    +2.0000
iter:  44 20:05:55    -3.386900c -5.52  -2.88    +2.0000
iter:  45 20:05:57    -3.386892c -6.63  -3.10    +2.0000
iter:  46 20:05:59    -3.386895c -6.38  -3.29    +2.0000
iter:  47 20:06:01    -3.386902c -6.37  -3.55    +2.0000
iter:  48 20:06:03    -3.387004c -5.33  -3.40    +2.0000
iter:  49 20:06:05    -3.386912c -5.68  -2.73    +2.0000
iter:  50 20:06:08    -3.386940c -6.26  -3.24    +2.0000
iter:  51 20:06:10    -3.386899c -6.37  -2.88    +2.0000
iter:  52 20:06:12    -3.386918c -5.80  -3.57    +2.0000
iter:  53 20:06:14    -3.386910c -6.40  -3.18    +2.0000
iter:  54 20:06:16    -3.386902c -6.91  -3.40    +2.0000
iter:  55 20:06:18    -3.386909c -6.51  -3.95    +2.0000
iter:  56 20:06:20    -3.386905c -6.39  -3.34    +2.0000
iter:  57 20:06:22    -3.386921c -6.16  -3.45    +2.0000
iter:  58 20:06:24    -3.386914c -6.70  -3.18    +2.0000
iter:  59 20:06:26    -3.386929c -6.41  -3.39    +2.0000
iter:  60 20:06:28    -3.386912c -6.27  -3.09    +2.0000
iter:  61 20:06:30    -3.386919c -6.39  -3.38    +2.0000
iter:  62 20:06:32    -3.386958c -5.74  -3.36    +2.0000
iter:  63 20:06:34    -3.386913c -5.70  -2.96    +2.0000
iter:  64 20:06:36    -3.386935c -6.31  -3.55    +2.0000
iter:  65 20:06:39    -3.386915c -4.83  -3.13    +2.0000
iter:  66 20:06:41    -3.386911c -6.52  -2.88    +2.0000
iter:  67 20:06:43    -3.386920c -6.29  -2.93    +2.0000
iter:  68 20:06:45    -3.386917c -7.34  -2.84    +2.0000
iter:  69 20:06:47    -3.386924c -6.96  -2.85    +2.0000
iter:  70 20:06:49    -3.386951c -6.72  -2.81    +2.0000
iter:  71 20:06:51    -3.386938c -7.69c -2.72    +2.0000
iter:  72 20:06:53    -3.386917c -6.40  -2.75    +2.0000
iter:  73 20:06:55    -3.386976c -6.35  -2.78    +2.0000
iter:  74 20:06:57    -3.386907c -5.84  -2.67    +2.0000
iter:  75 20:06:59    -3.386898c -6.63  -2.79    +2.0000
iter:  76 20:07:02    -3.386914c -6.33  -2.81    +2.0000
iter:  77 20:07:04    -3.386930c -5.05  -2.83    +2.0000
iter:  78 20:07:06    -3.388192c -4.68  -2.61    +2.0000
iter:  79 20:07:08    -3.386863c -4.65  -2.16    +2.0000
iter:  80 20:07:10    -3.389464c -4.20  -2.67    +2.0000
iter:  81 20:07:12    -3.387263c -4.66  -2.03    +2.0000
iter:  82 20:07:14    -3.386921c -4.74  -2.36    +2.0000
iter:  83 20:07:16    -3.386959c -6.00  -2.56    +2.0000
iter:  84 20:07:18    -3.387182c -4.97  -2.51    +2.0000
iter:  85 20:07:20    -3.386879c -3.94  -2.34    +2.0000
iter:  86 20:07:22    -3.386942c -4.95  -3.01    +2.0000
iter:  87 20:07:24    -3.386812c -5.00  -2.86    +2.0000
iter:  88 20:07:26    -3.386862c -5.30  -3.21    +2.0000
iter:  89 20:07:28    -3.386837c -5.96  -2.73    +2.0000
iter:  90 20:07:30    -3.387043c -5.22  -2.94    +2.0000
iter:  91 20:07:32    -3.386867c -5.64  -2.59    +2.0000
iter:  92 20:07:34    -3.386800c -5.41  -2.86    +2.0000
iter:  93 20:07:36    -3.386817c -6.30  -3.58    +2.0000
iter:  94 20:07:39    -3.386765c -4.92  -3.23    +2.0000
iter:  95 20:07:41    -3.386850c -5.02  -2.90    +2.0000
iter:  96 20:07:43    -3.387046c -4.41  -3.08    +2.0000
iter:  97 20:07:45    -3.386977c -6.03  -2.42    +2.0000
iter:  98 20:07:47    -3.387070c -5.19  -2.49    +2.0000
iter:  99 20:07:49    -3.387018c -4.93  -2.38    +2.0000
iter: 100 20:07:51    -3.387120c -4.52  -2.52    +2.0000
iter: 101 20:07:53    -3.388666c -4.52  -2.32    +2.0000
iter: 102 20:07:55    -3.387833c -5.68  -2.04    +2.0000
iter: 103 20:07:57    -3.387754c -5.12  -2.15    +2.0000
iter: 104 20:07:59    -3.388260c -5.59  -2.14    +2.0000
iter: 105 20:08:01    -3.387747c -4.68  -2.08    +2.0000
iter: 106 20:08:03    -3.389361c -4.71  -2.12    +2.0000
iter: 107 20:08:05    -3.388720c -4.73  -1.97    +2.0000
iter: 108 20:08:07    -3.388725c -5.16  -2.00    +2.0000
iter: 109 20:08:09    -3.388270c -5.27  -1.99    +2.0000
iter: 110 20:08:11    -3.390402c -3.81  -2.05    +2.0000
iter: 111 20:08:13    -3.387806c -2.64  -1.86    +2.0000
iter: 112 20:08:15    -3.387491c -4.26  -2.21    +2.0000
iter: 113 20:08:17    -3.388013c -4.20  -2.32    +2.0000
iter: 114 20:08:20    -3.389554c -4.74  -2.17    +2.0000
iter: 115 20:08:22    -3.388356c -4.38  -2.01    +2.0000
iter: 116 20:08:24    -3.388406c -4.60  -2.12    +2.0000
iter: 117 20:08:26    -3.388363c -5.92  -2.09    +2.0000
iter: 118 20:08:28    -3.388191c -5.15  -2.10    +2.0000
iter: 119 20:08:30    -3.386745c -3.51  -2.11    +2.0000
iter: 120 20:08:32    -3.442878  -2.36  -2.18    +2.0000
iter: 121 20:08:34    -3.390624  -2.42  -1.34    +2.0000
iter: 122 20:08:36    -3.385396  -3.95  -1.88    +2.0000
iter: 123 20:08:38    -3.385457c -5.17  -2.65    +2.0000
iter: 124 20:08:40    -3.385821c -4.56  -2.55    +2.0000
iter: 125 20:08:42    -3.387618c -3.44  -2.60    +2.0000
iter: 126 20:08:44    -3.390598c -3.18  -2.14    +2.0000
iter: 127 20:08:46    -3.387347c -3.36  -1.88    +2.0000
iter: 128 20:08:48    -3.399419  -2.64  -2.22    +2.0000
iter: 129 20:08:50    -3.388991  -3.51  -1.66    +2.0000
iter: 130 20:08:52    -3.388005  -4.48  -2.01    +2.0000
iter: 131 20:08:54    -3.388628c -4.89  -2.16    +2.0000
iter: 132 20:08:56    -3.388340c -4.43  -2.07    +2.0000
iter: 133 20:08:58    -3.390286c -3.70  -2.18    +2.0000
iter: 134 20:09:00    -3.394235c -3.80  -1.93    +2.0000
iter: 135 20:09:02    -3.386047  -2.80  -1.77    +2.0000
iter: 136 20:09:04    -3.387297  -3.68  -2.63    +2.0000
iter: 137 20:09:07    -3.386172c -3.90  -2.17    +2.0000
iter: 138 20:09:09    -3.389551c -3.36  -2.77    +2.0000
iter: 139 20:09:11    -3.388747c -4.79  -1.95    +2.0000
iter: 140 20:09:13    -3.391253c -4.30  -2.05    +2.0000
iter: 141 20:09:15    -3.386987c -3.21  -1.88    +2.0000
iter: 142 20:09:17    -3.390841c -3.51  -2.33    +2.0000
iter: 143 20:09:19    -3.391128c -2.55  -1.95    +2.0000
iter: 144 20:09:21    -3.395069c -3.65  -1.79    +2.0000
iter: 145 20:09:23    -3.388568  -3.91  -1.70    +2.0000
iter: 146 20:09:25    -3.388695  -4.66  -1.88    +2.0000
iter: 147 20:09:27    -3.393216c -4.01  -1.86    +2.0000
iter: 148 20:09:29    -3.388658c -3.88  -1.77    +2.0000
iter: 149 20:09:31    -3.390611c -3.97  -1.86    +2.0000
iter: 150 20:09:33    -3.403892  -3.81  -1.78    +2.0000
iter: 151 20:09:35    -3.390071  -3.44  -1.57    +2.0000
iter: 152 20:09:37    -3.387072  -3.59  -1.79    +2.0000
iter: 153 20:09:39    -3.406032  -3.02  -1.82    +2.0000
iter: 154 20:09:41    -3.397870  -4.34  -1.50    +2.0000
iter: 155 20:09:43    -3.383317  -3.38  -1.57    +2.0000
iter: 156 20:09:45    -3.381511  -2.83  -1.86    +2.0000
iter: 157 20:09:47    -3.377422c -4.05  -1.84    +2.0000
iter: 158 20:09:49    -3.380737c -3.55  -2.21    +2.0000
iter: 159 20:09:51    -3.382144c -3.89  -2.28    +2.0000
iter: 160 20:09:53    -3.389369  -3.37  -2.28    +2.0000
iter: 161 20:09:56    -3.378920  -3.13  -1.88    +2.0000
iter: 162 20:09:57    -3.371904  -2.94  -2.43    +2.0000
iter: 163 20:10:00    -3.385497  -2.90  -2.09    +2.0000
iter: 164 20:10:02    -3.367862  -2.56  -1.92    +2.0000
iter: 165 20:10:04    -3.382313  -2.54  -1.98    +2.0000
iter: 166 20:10:06    -3.382807  -3.93  -2.34    +2.0000
iter: 167 20:10:08    -3.388889  -3.92  -2.06    +2.0000
iter: 168 20:10:10    -3.369473  -2.62  -1.81    +2.0000
iter: 169 20:10:12    -3.376611  -3.61  -2.65    +2.0000
iter: 170 20:10:14    -3.415293  -2.37  -2.59    +2.0000
iter: 171 20:10:16    -3.374100  -1.94  -1.49    +2.0000
iter: 172 20:10:18    -3.362250  -2.14  -1.62    +2.0000
iter: 173 20:10:20    -3.374525  -2.14  -1.41    +2.0000
iter: 174 20:10:22    -3.375726  -2.97  -1.90    +2.0000
iter: 175 20:10:24    -3.367300  -2.94  -2.84    +2.0000
iter: 176 20:10:26    -3.392754  -2.32  -1.88    +2.0000
iter: 177 20:10:28    -3.353395  -1.74  -1.73    +2.0000
iter: 178 20:10:30    -3.615427  -1.03  -1.48    +2.0000
iter: 179 20:10:32    -3.648433  -2.10  -1.07    +2.0000
iter: 180 20:10:34    -3.684466  -2.48  -1.04    +2.0000
iter: 181 20:10:36    -3.674079  -3.74  -1.01    +2.0000
iter: 182 20:10:38    -3.663961  -4.17  -1.02    +2.0000
iter: 183 20:10:40    -3.500810  -2.67  -1.03    +2.0000
iter: 184 20:10:42    -3.404630  -2.48  -1.17    +2.0000
iter: 185 20:10:44    -3.373702  -2.58  -1.38    +2.0000
iter: 186 20:10:46    -3.541356  -2.02  -1.47    +2.0000
iter: 187 20:10:48    -3.425196  -3.40  -1.10    +2.0000
iter: 188 20:10:51    -3.323139  -2.85  -1.25    +2.0000
iter: 189 20:10:53    -3.178561  -2.19  -1.47    +2.0000
iter: 190 20:10:55    -3.331433  -2.29  -1.68    +2.0000
iter: 191 20:10:57    -3.568246  -1.98  -1.67    +2.0000
iter: 192 20:10:59    -3.233214  -1.82  -1.07    +2.0000
iter: 193 20:11:01    -3.251290  -2.41  -1.66    +2.0000
iter: 194 20:11:03    -3.326383  -2.23  -1.30    +2.0000
iter: 195 20:11:05    -3.360738  -2.53  -1.73    +2.0000
