29
Lattice="8.862876395392188 0.0 0.0 4.431438197696094 7.675476109011088 0.0 0.0 0.0 16.824338849348514" Properties=species:S:1:pos:R:3:tags:I:1:forces:R:3:magmoms:R:1 energy=-93.17067127163526 dipole="-0.11129708319154825 -0.06425740094066368 0.2746692065021749" magmom=1.4810220457486257e-14 free_energy=-93.32343558315083 pbc="T T T"
Au       1.47714607       0.85283068       6.00000000        3       0.00388064       0.00224049      -0.07449321       0.00000000
Au       4.43143820       0.85283068       6.00000000        3       0.00000000       0.01551012      -0.03143776      -0.00000000
Au       7.38573033       0.85283068       6.00000000        3      -0.00388064       0.00224049      -0.07449321       0.00000000
Au       2.95429213       3.41132272       6.00000000        3       0.01343216      -0.00775506      -0.03143776      -0.00000000
Au       5.90858426       3.41132272       6.00000000        3      -0.01343216      -0.00775506      -0.03143776      -0.00000000
Au       8.86287640       3.41132272       6.00000000        3      -0.00000000       0.02881709      -0.03282185      -0.00000000
Au       4.43143820       5.96981475       6.00000000        3       0.00000000      -0.00448098      -0.07449321       0.00000000
Au       7.38573033       5.96981475       6.00000000        3       0.02495633      -0.01440855      -0.03282185      -0.00000000
Au      10.34002246       5.96981475       6.00000000        3      -0.02495633      -0.01440855      -0.03282185      -0.00000000
Au       0.00000000       1.70566136       8.41216942        2       0.00000000      -0.09190553       0.09955027      -0.00000000
Au       2.95429213       1.70566136       8.41216942        2       0.02318139       0.01338378       0.01280808       0.00000000
Au       5.90858426       1.70566136       8.41216942        2      -0.02318139       0.01338378       0.01280808       0.00000000
Au       1.47714607       4.26415339       8.41216942        2      -0.02080969       0.01201448      -0.02134530       0.00000000
Au       4.43143820       4.26415339       8.41216942        2       0.00000000      -0.02676757       0.01280808       0.00000000
Au       7.38573033       4.26415339       8.41216942        2       0.02080969       0.01201448      -0.02134530       0.00000000
Au       2.95429213       6.82264543       8.41216942        2       0.07959252       0.04595276       0.09955027      -0.00000000
Au       5.90858426       6.82264543       8.41216942        2      -0.07959252       0.04595276       0.09955027      -0.00000000
Au       8.86287640       6.82264543       8.41216942        2       0.00000000      -0.02402896      -0.02134530       0.00000000
Au       0.00000000       0.00000000      10.82433885        1       0.00000000       0.00000000       0.27383694       0.00000000
Au       2.95429213       0.00000000      10.82433885        1       0.25643458       0.01598749      -0.02822081       0.00000000
Au       5.90858426       0.00000000      10.82433885        1      -0.25643458       0.01598749      -0.02822081       0.00000000
Au       1.47714607       2.55849204      10.82433885        1       0.14206287       0.21408512      -0.02822081       0.00000000
Au       4.43143820       2.55849204      10.82433885        1       0.00000000       0.00000000       0.05035289      -0.00000000
Au       7.38573033       2.55849204      10.82433885        1      -0.14206287       0.21408512      -0.02822081       0.00000000
Au       2.95429213       5.11698407      10.82433885        1      -0.11437172      -0.23007261      -0.02822081       0.00000000
Au       5.90858426       5.11698407      10.82433885        1       0.11437172      -0.23007261      -0.02822081       0.00000000
Au       8.86287640       5.11698407      10.82433885        1       0.00000000       0.00000000       0.02632976      -0.00000000
O       -0.00000000      -0.00000000      14.05365499        0       0.00000000       0.00000000       0.01748957      -0.00000000
C        0.00000000       0.00000000      12.90892485        0       0.00000000       0.00000000      -0.09896165      -0.00000000
