28
Lattice="8.862876395392188 0.0 0.0 4.431438197696094 7.675476109011088 0.0 0.0 0.0 16.824338849348514" Properties=species:S:1:pos:R:3:tags:I:1:forces:R:3:magmoms:R:1 energy=-82.87545655910583 dipole="-1.1135973067126852 -0.6429357047994229 -0.26668504963923445" magmom=-2.1836821918713162e-14 free_energy=-83.00651063682521 pbc="T T T"
Au       1.47714607       0.85283068       6.00000000        3       0.00203206       0.00117321      -0.08814333      -0.00000000
Au       4.43143820       0.85283068       6.00000000        3      -0.02749851       0.00966946      -0.05761140      -0.00000000
Au       7.38573033       0.85283068       6.00000000        3       0.01929865      -0.02365542      -0.05766174       0.00000000
Au       2.95429213       3.41132272       6.00000000        3      -0.00537525      -0.02864914      -0.05761140      -0.00000000
Au       5.90858426       3.41132272       6.00000000        3      -0.00771540      -0.00445449       0.00508188      -0.00000000
Au       8.86287640       3.41132272       6.00000000        3       0.00517354      -0.00993663      -0.06034627       0.00000000
Au       4.43143820       5.96981475       6.00000000        3      -0.01083687       0.02854083      -0.05766174       0.00000000
Au       7.38573033       5.96981475       6.00000000        3      -0.00601860       0.00944873      -0.06034627       0.00000000
Au      10.34002246       5.96981475       6.00000000        3       0.01185452       0.00684421       0.11581302      -0.00000000
Au       0.00000000       1.70566136       8.41216942        2      -0.03052709       0.02776051      -0.02696669      -0.00000000
Au       2.95429213       1.70566136       8.41216942        2       0.03665527       0.02116293      -0.04567511      -0.00000000
Au       5.90858426       1.70566136       8.41216942        2      -0.00718514      -0.00940246       0.02109381       0.00000000
Au       1.47714607       4.26415339       8.41216942        2       0.00519744      -0.23379319       0.19555669       0.00000000
Au       4.43143820       4.26415339       8.41216942        2      -0.01173534      -0.00152129       0.02109381       0.00000000
Au       7.38573033       4.26415339       8.41216942        2       0.01453016       0.00838899       0.03168409       0.00000000
Au       2.95429213       6.82264543       8.41216942        2       0.19160022       0.11062044       0.19924448       0.00000000
Au       5.90858426       6.82264543       8.41216942        2       0.00877776      -0.04031749      -0.02696669      -0.00000000
Au       8.86287640       6.82264543       8.41216942        2      -0.19987212       0.12139771       0.19555669       0.00000000
Au       0.00000000       0.00000000      10.82433885        1      -0.89306014      -0.51560851       0.04567139      -0.00000000
Au       2.95429213       0.00000000      10.82433885        1       0.89748700      -0.52840847       0.03759060      -0.00000000
Au       5.90858426       0.00000000      10.82433885        1       0.01747682       0.00052904      -0.04800003       0.00000000
Au       1.47714607       2.55849204      10.82433885        1      -0.00887166       1.04145078       0.03759060      -0.00000000
Au       4.43143820       2.55849204      10.82433885        1       0.24554255       0.14176406      -0.05388083      -0.00000000
Au       7.38573033       2.55849204      10.82433885        1      -0.23431815       0.13684334      -0.04896737       0.00000000
Au       2.95429213       5.11698407      10.82433885        1       0.00919657       0.01487085      -0.04800003       0.00000000
Au       5.90858426       5.11698407      10.82433885        1       0.00135074      -0.27134714      -0.04896737       0.00000000
Au       8.86287640       5.11698407      10.82433885        1      -0.00491637      -0.00283847      -0.04704237       0.00000000
O        1.48470348       0.85719395      12.17499164        0      -0.01844011      -0.01064640      -0.08520157      -0.00000000
