29
Lattice="8.415277802901103 0.0 0.0 4.207638901450552 7.287844357215651 0.0 0.0 0.0 16.58069703575049" Properties=species:S:1:pos:R:3:tags:I:1:forces:R:3:magmoms:R:1 energy=-177.6552914668217 dipole="-0.2160979824128585 -0.12476422831740165 0.09273867989264772" magmom=2.0966965826464418e-13 free_energy=-178.52343702077147 pbc="T T T"
Pt       1.40254630       0.80976048       6.00000000        3       0.00823093       0.00475213      -0.03206955      -0.00000000
Pt       4.20763890       0.80976048       6.00000000        3       0.00000000       0.00288866      -0.10030286      -0.00000000
Pt       7.01273150       0.80976048       6.00000000        3      -0.00823093       0.00475213      -0.03206955      -0.00000000
Pt       2.80509260       3.23904194       6.00000000        3       0.00250165      -0.00144433      -0.10030286      -0.00000000
Pt       5.61018520       3.23904194       6.00000000        3      -0.00250165      -0.00144433      -0.10030286      -0.00000000
Pt       8.41527780       3.23904194       6.00000000        3      -0.00000000       0.04500726      -0.21326827       0.00000000
Pt       4.20763890       5.66832339       6.00000000        3       0.00000000      -0.00950426      -0.03206955      -0.00000000
Pt       7.01273150       5.66832339       6.00000000        3       0.03897743      -0.02250363      -0.21326827       0.00000000
Pt       9.81782410       5.66832339       6.00000000        3      -0.03897743      -0.02250363      -0.21326827       0.00000000
Pt      -0.00000000       1.61952097       8.29034852        2      -0.00000000       0.00857191       0.02494554       0.00000000
Pt       2.80509260       1.61952097       8.29034852        2       0.01853752       0.01070264      -0.00899013      -0.00000000
Pt       5.61018520       1.61952097       8.29034852        2      -0.01853752       0.01070264      -0.00899013      -0.00000000
Pt       1.40254630       4.04880242       8.29034852        2       0.00595015      -0.00343532      -0.04536534       0.00000000
Pt       4.20763890       4.04880242       8.29034852        2      -0.00000000      -0.02140529      -0.00899013      -0.00000000
Pt       7.01273150       4.04880242       8.29034852        2      -0.00595015      -0.00343532      -0.04536534       0.00000000
Pt       2.80509260       6.47808387       8.29034852        2      -0.00742349      -0.00428595       0.02494554       0.00000000
Pt       5.61018520       6.47808387       8.29034852        2       0.00742349      -0.00428595       0.02494554       0.00000000
Pt       8.41527780       6.47808387       8.29034852        2      -0.00000000       0.00687064      -0.04536534       0.00000000
Pt       0.00000000       0.00000000      10.58069704        1       0.00000000       0.00000000       0.98195897      -0.00000000
Pt       2.80509260       0.00000000      10.58069704        1       0.41025688      -0.00243075      -0.00637282       0.00000000
Pt       5.61018520       0.00000000      10.58069704        1      -0.41025688      -0.00243075      -0.00637282       0.00000000
Pt       1.40254630       2.42928145      10.58069704        1       0.20302335       0.35650826      -0.00637282       0.00000000
Pt       4.20763890       2.42928145      10.58069704        1       0.00000000       0.00000000       0.09600833      -0.00000000
Pt       7.01273150       2.42928145      10.58069704        1      -0.20302335       0.35650826      -0.00637282       0.00000000
Pt       2.80509260       4.85856290      10.58069704        1      -0.20723353      -0.35407751      -0.00637282       0.00000000
Pt       5.61018520       4.85856290      10.58069704        1       0.20723353      -0.35407751      -0.00637282       0.00000000
Pt       8.41527780       4.85856290      10.58069704        1       0.00000000       0.00000000       0.09513280       0.00000000
O       -0.00000000      -0.00000000      13.58998296        0      -0.00000000       0.00000000       0.03996036       0.00000000
C       -0.00000000      -0.00000000      12.43593210        0      -0.00000000      -0.00000000       0.03387696       0.00000000
