28
Lattice="8.415277802901103 0.0 0.0 4.207638901450552 7.287844357215651 0.0 0.0 0.0 16.58069703575049" Properties=species:S:1:pos:R:3:tags:I:1:forces:R:3:magmoms:R:1 energy=-167.26735795102053 dipole="-1.8613450083188985 -1.0746480416077149 -0.052827958090731" magmom=-1.8905501795250477e-13 free_energy=-168.1187835462688 pbc="T T T"
Pt       1.40254630       0.80976048       6.00000000        3      -0.00577343      -0.00333329      -0.04771519       0.00000000
Pt       4.20763890       0.80976048       6.00000000        3       0.02831591       0.01383135      -0.08383508      -0.00000000
Pt       7.01273150       0.80976048       6.00000000        3      -0.02894493       0.01285696      -0.09243222      -0.00000000
Pt       2.80509260       3.23904194       6.00000000        3       0.02613626       0.01760662      -0.08383508      -0.00000000
Pt       5.61018520       3.23904194       6.00000000        3       0.00084477       0.00048773      -0.11215934       0.00000000
Pt       8.41527780       3.23904194       6.00000000        3      -0.02910847       0.02525585      -0.09335018       0.00000000
Pt       4.20763890       5.66832339       6.00000000        3      -0.00333801      -0.03149553      -0.09243222      -0.00000000
Pt       7.01273150       5.66832339       6.00000000        3       0.00731797      -0.03783660      -0.09335018       0.00000000
Pt       9.81782410       5.66832339       6.00000000        3      -0.00598416      -0.00345495      -0.39044472       0.00000000
Pt      -0.00000000       1.61952097       8.29034852        2      -0.04318032       0.01899440      -0.31980474      -0.00000000
Pt       2.80509260       1.61952097       8.29034852        2       0.04605380       0.02658917      -0.32296161      -0.00000000
Pt       5.61018520       1.61952097       8.29034852        2       0.00181024       0.02738154       0.00589319      -0.00000000
Pt       1.40254630       4.04880242       8.29034852        2       0.00048714      -0.12228174       0.44533761      -0.00000000
Pt       4.20763890       4.04880242       8.29034852        2       0.02461823      -0.01212305       0.00589319      -0.00000000
Pt       7.01273150       4.04880242       8.29034852        2      -0.02559408      -0.01477675       0.01046651       0.00000000
Pt       2.80509260       6.47808387       8.29034852        2       0.11339432       0.06546824       0.43461154      -0.00000000
Pt       5.61018520       6.47808387       8.29034852        2      -0.00514052      -0.04689245      -0.31980474      -0.00000000
Pt       8.41527780       6.47808387       8.29034852        2      -0.10565552       0.06156274       0.44533761      -0.00000000
Pt       0.00000000       0.00000000      10.58069704        1      -0.95892129      -0.55363347       0.21697567       0.00000000
Pt       2.80509260       0.00000000      10.58069704        1       0.93377434      -0.53379744       0.22283440      -0.00000000
Pt       5.61018520       0.00000000      10.58069704        1       0.00925871      -0.03346190       0.03997457      -0.00000000
Pt       1.40254630       2.42928145      10.58069704        1       0.00460503       1.07557102       0.22283440      -0.00000000
Pt       4.20763890       2.42928145      10.58069704        1       0.38412234       0.22177313      -0.01454935      -0.00000000
Pt       7.01273150       2.42928145      10.58069704        1      -0.38147264       0.22297159      -0.02609935       0.00000000
Pt       2.80509260       4.85856290      10.58069704        1      -0.02434950       0.02474923       0.03997457      -0.00000000
Pt       5.61018520       4.85856290      10.58069704        1       0.00236274      -0.44185080      -0.02609935       0.00000000
Pt       8.41527780       4.85856290      10.58069704        1       0.03563203       0.02057216       0.02629846      -0.00000000
O        1.40320985       0.81014359      11.83584606        0      -0.00036843      -0.00021271       0.00041403       0.00000000
