29
Lattice="8.13950615823835 0.0 0.0 4.069753079119175 7.049019107294291 0.0 0.0 0.0 16.43058596576119" Properties=species:S:1:pos:R:3:tags:I:1:forces:R:3:magmoms:R:1 energy=-198.76025311378334 dipole="-0.2425236474227707 -0.1400210931243424 -0.13676783771754206" magmom=-1.3306228249775288e-13 free_energy=-199.60041914020405 pbc="T T T"
Rh       1.35658436       0.78322435       6.00000000        3      -0.01685651      -0.00973211       0.47300808       0.00000000
Rh       4.06975308       0.78322435       6.00000000        3       0.00000000      -0.03913074       0.42472515       0.00000000
Rh       6.78292180       0.78322435       6.00000000        3       0.01685651      -0.00973211       0.47300808       0.00000000
Rh       2.71316872       3.13289738       6.00000000        3      -0.03388822       0.01956537       0.42472515       0.00000000
Rh       5.42633744       3.13289738       6.00000000        3       0.03388822       0.01956537       0.42472515       0.00000000
Rh       8.13950616       3.13289738       6.00000000        3       0.00000000       0.15716553       0.28863621       0.00000000
Rh       4.06975308       5.48257042       6.00000000        3      -0.00000000       0.01946422       0.47300808       0.00000000
Rh       6.78292180       5.48257042       6.00000000        3       0.13610934      -0.07858276       0.28863621       0.00000000
Rh       9.49609052       5.48257042       6.00000000        3      -0.13610934      -0.07858276       0.28863621       0.00000000
Rh      -0.00000000       1.56644869       8.21529298        2      -0.00000000      -0.06047618      -0.25595376      -0.00000000
Rh       2.71316872       1.56644869       8.21529298        2      -0.00542395      -0.00313152       0.00141383      -0.00000000
Rh       5.42633744       1.56644869       8.21529298        2       0.00542395      -0.00313152       0.00141383      -0.00000000
Rh       1.35658436       3.91612173       8.21529298        2       0.02469813      -0.01425947       0.05203335      -0.00000000
Rh       4.06975308       3.91612173       8.21529298        2       0.00000000       0.00626304       0.00141383      -0.00000000
Rh       6.78292180       3.91612173       8.21529298        2      -0.02469813      -0.01425947       0.05203335      -0.00000000
Rh       2.71316872       6.26579476       8.21529298        2       0.05237390       0.03023809      -0.25595376      -0.00000000
Rh       5.42633744       6.26579476       8.21529298        2      -0.05237390       0.03023809      -0.25595376      -0.00000000
Rh       8.13950616       6.26579476       8.21529298        2      -0.00000000       0.02851894       0.05203335      -0.00000000
Rh       0.00000000       0.00000000      10.43058597        1       0.00000000      -0.00000000       0.81493058       0.00000000
Rh       2.71316872       0.00000000      10.43058597        1       0.31194157      -0.01119762      -0.50531423      -0.00000000
Rh       5.42633744       0.00000000      10.43058597        1      -0.31194157      -0.01119762      -0.50531423      -0.00000000
Rh       1.35658436       2.34967304      10.43058597        1       0.14627337       0.27574814      -0.50531423      -0.00000000
Rh       4.06975308       2.34967304      10.43058597        1       0.00000000       0.00000000      -0.43199726      -0.00000000
Rh       6.78292180       2.34967304      10.43058597        1      -0.14627337       0.27574814      -0.50531423      -0.00000000
Rh       2.71316872       4.69934607      10.43058597        1      -0.16566821      -0.26455052      -0.50531423      -0.00000000
Rh       5.42633744       4.69934607      10.43058597        1       0.16566821      -0.26455052      -0.50531423      -0.00000000
Rh       8.13950616       4.69934607      10.43058597        1       0.00000000       0.00000000      -0.38753869      -0.00000000
O       -0.00000000      -0.00000000      13.43201540        0       0.00000000      -0.00000000       0.04046302       0.00000000
C       -0.00000000      -0.00000000      12.27085965        0      -0.00000000      -0.00000000      -0.05640114      -0.00000000
