28
Lattice="8.13950615823835 0.0 0.0 4.069753079119175 7.049019107294291 0.0 0.0 0.0 16.43058596576119" Properties=species:S:1:pos:R:3:tags:I:1:forces:R:3:magmoms:R:1 energy=-188.95675969058183 dipole="-1.8640477815105632 -1.0762084884374135 -0.14762353996839023" magmom=4.683542164615635e-13 free_energy=-189.79900692975036 pbc="T T T"
Rh       1.35658436       0.78322435       6.00000000        3      -0.00019297      -0.00011141       0.42345324      -0.00000000
Rh       4.06975308       0.78322435       6.00000000        3       0.00348701      -0.05689880       0.45224861       0.00000000
Rh       6.78292180       0.78322435       6.00000000        3      -0.00119918      -0.06071547       0.45397679       0.00000000
Rh       2.71316872       3.13289738       6.00000000        3      -0.04753230       0.03146924       0.45224861       0.00000000
Rh       5.42633744       3.13289738       6.00000000        3       0.00331465       0.00191372       0.44005246       0.00000000
Rh       8.13950616       3.13289738       6.00000000        3       0.04774181       0.02818532       0.44855632       0.00000000
Rh       4.06975308       5.48257042       6.00000000        3      -0.05318073       0.02931922       0.45397679       0.00000000
Rh       6.78292180       5.48257042       6.00000000        3       0.04828011       0.02725296       0.44855632       0.00000000
Rh       9.49609052       5.48257042       6.00000000        3       0.01178019       0.00680130      -0.05318862       0.00000000
Rh      -0.00000000       1.56644869       8.21529298        2      -0.10642113       0.06618266      -0.39132494       0.00000000
Rh       2.71316872       1.56644869       8.21529298        2       0.10629117       0.06136723      -0.39358722      -0.00000000
Rh       5.42633744       1.56644869       8.21529298        2       0.00164545      -0.00869311       0.04883224      -0.00000000
Rh       1.35658436       3.91612173       8.21529298        2       0.00102255      -0.01285321       0.07531776       0.00000000
Rh       4.06975308       3.91612173       8.21529298        2      -0.00670573       0.00577155       0.04883224      -0.00000000
Rh       6.78292180       3.91612173       8.21529298        2       0.01017834       0.00587646       0.04949817      -0.00000000
Rh       2.71316872       6.26579476       8.21529298        2       0.01056431       0.00609931       0.08165999       0.00000000
Rh       5.42633744       6.26579476       8.21529298        2       0.00410530      -0.12525473      -0.39132494       0.00000000
Rh       8.13950616       6.26579476       8.21529298        2      -0.01061993       0.00731216       0.07531776       0.00000000
Rh       0.00000000       0.00000000      10.43058597        1      -0.16275634      -0.09396742       0.08326629      -0.00000000
Rh       2.71316872       0.00000000      10.43058597        1       0.17079476      -0.10551192       0.08538037      -0.00000000
Rh       5.42633744       0.00000000      10.43058597        1      -0.00698647       0.02246974      -0.51923952      -0.00000000
Rh       1.35658436       2.34967304      10.43058597        1      -0.00597863       0.20066856       0.08538037      -0.00000000
Rh       4.06975308       2.34967304      10.43058597        1       0.34714639       0.20042506      -0.47093000      -0.00000000
Rh       6.78292180       2.34967304      10.43058597        1      -0.34607202       0.19282243      -0.46631205      -0.00000000
Rh       2.71316872       4.69934607      10.43058597        1       0.01596613      -0.01728533      -0.51923952      -0.00000000
Rh       5.42633744       4.69934607      10.43058597        1      -0.00604689      -0.39611837      -0.46631205      -0.00000000
Rh       8.13950616       4.69934607      10.43058597        1      -0.02030812      -0.01172490      -0.51979306      -0.00000000
O        1.35934898       0.78482050      11.74116730        0      -0.00632546      -0.00365200       0.01084318      -0.00000000
