
  ___ ___ ___ _ _ _  
 |   |   |_  | | | | 
 | | | | | . | | | | 
 |__ |  _|___|_____|  22.8.0
 |___|_|             

User:   nicog@vera44-4
Date:   Wed Feb 22 16:58:31 2023
Arch:   x86_64
Pid:    441327
CWD:    /cephyr/users/nicog/Vera/Computational_Materials_2023/A4
Python: 3.10.4
gpaw:   /apps/Arch/software/GPAW/22.8.0-foss-2022a/lib/python3.10/site-packages/gpaw
_gpaw:  /apps/Arch/software/GPAW/22.8.0-foss-2022a/lib/python3.10/site-packages/
        _gpaw.cpython-310-x86_64-linux-gnu.so
ase:    /apps/Arch/software/ASE/3.22.1-foss-2022a/lib/python3.10/site-packages/ase (version 3.22.1)
numpy:  /apps/Arch/software/SciPy-bundle/2022.05-foss-2022a/lib/python3.10/site-packages/numpy (version 1.22.3)
scipy:  /apps/Arch/software/SciPy-bundle/2022.05-foss-2022a/lib/python3.10/site-packages/scipy (version 1.8.1)
libxc:  5.2.3
units:  Angstrom and eV
cores: 24
OpenMP: False
OMP_NUM_THREADS: 1

Input parameters:
  kpts: [4 4 1]
  mode: {ecut: 450.00000000000006,
         name: pw}
  xc: PBE

System changes: positions, numbers, cell, pbc, initial_charges, initial_magmoms 

Initialize ...

species:
  Pt:
    name: Platinum
    id: 5ed695806aff0c961dba1a84acd7f4b2
    Z: 78.0
    valence: 16
    core: 62
    charge: 0.0
    file: /apps/Common/software/GPAW-setups/0.9.20000/Pt.PBE.gz
    compensation charges: {type: gauss,
                           rc: 0.41,
                           lmax: 2}
    cutoffs: {filter: 2.26,
              core: 2.26}
    valence states:
      #              energy  rcut
      - 6s(1.00)    -5.628   1.307
      - 5p(6.00)   -56.051   1.371
      - 6p(0.00)    -0.845   1.371
      - 5d(9.00)    -6.153   1.307
      -  s          21.583   1.307
      -  d          21.058   1.307
  
    # Using partial waves for Pt as LCAO basis

Reference energy: -13510134.794721  # eV

Spin-paired calculation

Convergence criteria:
 Maximum [total energy] change in last 3 cyles: 0.0005 eV / electron
 Maximum integral of absolute [dens]ity change: 0.0001 electrons / valence electron
 Maximum integral of absolute [eigenst]ate change: 4e-08 eV^2 / valence electron
 Maximum number of scf [iter]ations: 333
 (Square brackets indicate name in SCF output, whereas a 'c' in
 the SCF output indicates the quantity has converged.)

Symmetries present (total): 6

  ( 1  0  0)  ( 1 -1  0)  ( 0  1  0)  ( 0 -1  0)  (-1  1  0)  (-1  0  0)
  ( 0  1  0)  ( 0 -1  0)  ( 1  0  0)  ( 1 -1  0)  (-1  0  0)  (-1  1  0)
  ( 0  0  1)  ( 0  0  1)  ( 0  0  1)  ( 0  0  1)  ( 0  0  1)  ( 0  0  1)
Note: your k-points are not as symmetric as your crystal!

16 k-points: 4 x 4 x 1 Monkhorst-Pack grid
6 k-points in the irreducible part of the Brillouin zone
       k-points in crystal coordinates                weights
   0:     0.12500000   -0.12500000    0.00000000          2/16
   1:     0.12500000    0.12500000    0.00000000          2/16
   2:     0.37500000   -0.37500000    0.00000000          2/16
   3:     0.37500000   -0.12500000    0.00000000          4/16
   4:     0.37500000    0.12500000    0.00000000          4/16
   5:     0.37500000    0.37500000    0.00000000          2/16

Wave functions: Plane wave expansion
  Cutoff energy: 450.000 eV
  Number of coefficients (min, max): 22030, 22077
  Pulay-stress correction: 0.000000 eV/Ang^3 (de/decut=0.000000)
  Using FFTW library
  ScaLapack parameters: grid=1x1, blocksize=None
  Wavefunction extrapolation:
    Improved wavefunction reuse through dual PAW basis 

Occupation numbers: Fermi-Dirac:
  width: 0.1000  # eV
 

Eigensolver
   Davidson(niter=2) 

Densities:
  Coarse grid: 42*42*84 grid
  Fine grid: 84*84*168 grid
  Total Charge: 0.000000 

Density mixing:
  Method: separate
  Backend: pulay
  Linear mixing parameter: 0.05
  old densities: 5
  Damping of long wavelength oscillations: 50 

Hamiltonian:
  XC and Coulomb potentials evaluated on a 84*84*168 grid
  Using the PBE Exchange-Correlation functional
  External potential:
    NoExternalPotential
 

XC parameters: PBE with 2 nearest neighbor stencil

Memory estimate:
  Process memory now: 458.95 MiB
  Calculator: 218.04 MiB
    Density: 16.00 MiB
      Arrays: 7.35 MiB
      Localized functions: 5.82 MiB
      Mixer: 2.83 MiB
    Hamiltonian: 4.92 MiB
      Arrays: 4.80 MiB
      XC: 0.00 MiB
      Poisson: 0.00 MiB
      vbar: 0.12 MiB
    Wavefunctions: 197.11 MiB
      Arrays psit_nG: 88.93 MiB
      Eigensolver: 101.26 MiB
      Projections: 0.49 MiB
      Projectors: 0.63 MiB
      PW-descriptor: 5.80 MiB

Total number of cores used: 24
Parallelization over k-points: 6
Domain decomposition: 2 x 1 x 2

Number of atoms: 27
Number of atomic orbitals: 324
Number of bands in calculation: 264
Number of valence electrons: 432
Bands to converge: occupied

... initialized

Initializing position-dependent things.

Density initialized from atomic densities
Creating initial wave functions:
  264 bands from LCAO basis set

                                            
                                            
                                            
                                            
                                            
                 Pt     Pt     Pt           
            Pt     Pt     Pt                
       Pt     Pt  Pt Pt  Pt    Pt           
             Pt     Pt     Pt               
        Pt     Pt     Pt                    
                     Pt     Pt    Pt        
                Pt     Pt     Pt            
                                            
           Pt     Pt     Pt                 
                                            
                                            
                                            
                                            

Positions:
   0 Pt     1.402546    0.809760    6.000000    ( 0.0000,  0.0000,  0.0000)
   1 Pt     4.207639    0.809760    6.000000    ( 0.0000,  0.0000,  0.0000)
   2 Pt     7.012732    0.809760    6.000000    ( 0.0000,  0.0000,  0.0000)
   3 Pt     2.805093    3.239042    6.000000    ( 0.0000,  0.0000,  0.0000)
   4 Pt     5.610185    3.239042    6.000000    ( 0.0000,  0.0000,  0.0000)
   5 Pt     8.415278    3.239042    6.000000    ( 0.0000,  0.0000,  0.0000)
   6 Pt     4.207639    5.668323    6.000000    ( 0.0000,  0.0000,  0.0000)
   7 Pt     7.012732    5.668323    6.000000    ( 0.0000,  0.0000,  0.0000)
   8 Pt     9.817824    5.668323    6.000000    ( 0.0000,  0.0000,  0.0000)
   9 Pt    -0.000000    1.619521    8.290349    ( 0.0000,  0.0000,  0.0000)
  10 Pt     2.805093    1.619521    8.290349    ( 0.0000,  0.0000,  0.0000)
  11 Pt     5.610185    1.619521    8.290349    ( 0.0000,  0.0000,  0.0000)
  12 Pt     1.402546    4.048802    8.290349    ( 0.0000,  0.0000,  0.0000)
  13 Pt     4.207639    4.048802    8.290349    ( 0.0000,  0.0000,  0.0000)
  14 Pt     7.012732    4.048802    8.290349    ( 0.0000,  0.0000,  0.0000)
  15 Pt     2.805093    6.478084    8.290349    ( 0.0000,  0.0000,  0.0000)
  16 Pt     5.610185    6.478084    8.290349    ( 0.0000,  0.0000,  0.0000)
  17 Pt     8.415278    6.478084    8.290349    ( 0.0000,  0.0000,  0.0000)
  18 Pt     0.000000    0.000000   10.580697    ( 0.0000,  0.0000,  0.0000)
  19 Pt     2.805093    0.000000   10.580697    ( 0.0000,  0.0000,  0.0000)
  20 Pt     5.610185    0.000000   10.580697    ( 0.0000,  0.0000,  0.0000)
  21 Pt     1.402546    2.429281   10.580697    ( 0.0000,  0.0000,  0.0000)
  22 Pt     4.207639    2.429281   10.580697    ( 0.0000,  0.0000,  0.0000)
  23 Pt     7.012732    2.429281   10.580697    ( 0.0000,  0.0000,  0.0000)
  24 Pt     2.805093    4.858563   10.580697    ( 0.0000,  0.0000,  0.0000)
  25 Pt     5.610185    4.858563   10.580697    ( 0.0000,  0.0000,  0.0000)
  26 Pt     8.415278    4.858563   10.580697    ( 0.0000,  0.0000,  0.0000)

Unit cell:
           periodic     x           y           z      points  spacing
  1. axis:    yes    8.415278    0.000000    0.000000    42     0.1735
  2. axis:    yes    4.207639    7.287844    0.000000    42     0.1735
  3. axis:    no     0.000000    0.000000   16.580697    84     0.1974

  Lengths:   8.415278   8.415278  16.580697
  Angles:   90.000000  90.000000  60.000000

Effective grid spacing dv^(1/3) = 0.1900

     iter     time        total  log10-change:
                         energy  eigst   dens
iter:   1 16:58:46  -172.724948
iter:   2 16:58:51  -170.485492  -1.23  -1.42
iter:   3 16:58:56  -166.098056  -1.78  -1.46
iter:   4 16:59:01  -162.182345  -1.36  -1.59
iter:   5 16:59:06  -162.534049  -2.17  -2.00
iter:   6 16:59:11  -162.088741  -2.73  -2.08
iter:   7 16:59:16  -161.907849  -3.10  -2.23
iter:   8 16:59:21  -161.899115c -3.80  -2.31
iter:   9 16:59:26  -161.868034c -2.87  -2.34
iter:  10 16:59:30  -161.878316c -3.30  -2.90
iter:  11 16:59:35  -161.866240c -4.14  -2.94
iter:  12 16:59:40  -161.868046c -4.74  -3.15
iter:  13 16:59:45  -161.868270c -4.98  -3.07
iter:  14 16:59:50  -161.869364c -4.72  -3.10
iter:  15 16:59:55  -161.867734c -4.72  -3.05
iter:  16 17:00:00  -161.866217c -5.28  -3.16
iter:  17 17:00:05  -161.866024c -5.76  -3.24
iter:  18 17:00:10  -161.869496c -4.77  -3.30
iter:  19 17:00:15  -161.869579c -5.52  -3.90
iter:  20 17:00:19  -161.869437c -5.92  -4.03c
iter:  21 17:00:24  -161.869108c -6.15  -4.08c
iter:  22 17:00:29  -161.868908c -6.50  -4.15c
iter:  23 17:00:34  -161.868844c -6.94  -4.22c
iter:  24 17:00:39  -161.868763c -6.67  -4.25c
iter:  25 17:00:44  -161.868738c -7.31  -4.38c
iter:  26 17:00:49  -161.868655c -7.28  -4.46c
iter:  27 17:00:54  -161.868628c -8.07c -4.60c

Converged after 27 iterations.

Dipole moment: (-0.177546, -0.102506, 0.000088) |e|*Ang

Energy contributions relative to reference atoms: (reference = -13510134.794721)

Kinetic:       -309.544173
Potential:     +238.252281
External:        +0.000000
XC:             -74.992639
Entropy (-ST):   -1.815757
Local:          -14.676218
--------------------------
Free energy:   -162.776507
Extrapolated:  -161.868628

Showing only first 2 kpts
 Kpt  Band  Eigenvalues  Occupancy
  0   214      1.28101    1.31549
  0   215      1.28101    1.31548
  0   216      1.29898    1.23246
  0   217      1.34010    1.03119

  1   214      1.11986    1.81183
  1   215      1.12176    1.80856
  1   216      1.17780    1.68722
  1   217      1.17780    1.68722


Fermi level: 1.34634

No gap
Timing:                              incl.     excl.
-----------------------------------------------------------
Hamiltonian:                         0.481     0.003   0.0% |
 Atomic:                             0.095     0.024   0.0% |
  XC Correction:                     0.072     0.072   0.0% |
 Calculate atomic Hamiltonians:      0.096     0.096   0.1% |
 Communicate:                        0.137     0.137   0.1% |
 Initialize Hamiltonian:             0.000     0.000   0.0% |
 Poisson:                            0.002     0.002   0.0% |
 XC 3D grid:                         0.148     0.148   0.1% |
LCAO initialization:                 8.000     0.090   0.1% |
 LCAO eigensolver:                   1.145     0.000   0.0% |
  Calculate projections:             0.003     0.003   0.0% |
  DenseAtomicCorrection:             0.003     0.003   0.0% |
  Distribute overlap matrix:         0.105     0.105   0.1% |
  Orbital Layouts:                   0.068     0.068   0.0% |
  Potential matrix:                  0.961     0.961   0.7% |
  Sum over cells:                    0.004     0.004   0.0% |
 LCAO to grid:                       6.442     6.442   4.5% |-|
 Set positions (LCAO WFS):           0.323     0.146   0.1% |
  Basic WFS set positions:           0.004     0.004   0.0% |
  Basis functions set positions:     0.000     0.000   0.0% |
  P tci:                             0.089     0.089   0.1% |
  ST tci:                            0.055     0.055   0.0% |
  mktci:                             0.029     0.029   0.0% |
PWDescriptor:                        0.264     0.264   0.2% |
SCF-cycle:                         132.102     3.306   2.3% ||
 Davidson:                         104.473    16.954  11.8% |----|
  Apply H:                          10.646    10.332   7.2% |--|
   HMM T:                            0.314     0.314   0.2% |
  Subspace diag:                    17.958     0.003   0.0% |
   calc_h_matrix:                   13.152     2.298   1.6% ||
    Apply H:                        10.854    10.524   7.3% |--|
     HMM T:                          0.331     0.331   0.2% |
   diagonalize:                      1.056     1.056   0.7% |
   rotate_psi:                       3.747     3.747   2.6% ||
  calc. matrices:                   36.801    15.003  10.5% |---|
   Apply H:                         21.797    21.176  14.8% |-----|
    HMM T:                           0.621     0.621   0.4% |
  diagonalize:                      14.767    14.767  10.3% |---|
  rotate_psi:                        7.348     7.348   5.1% |-|
 Density:                           13.137     0.001   0.0% |
  Atomic density matrices:           0.750     0.750   0.5% |
  Mix:                               4.260     4.260   3.0% ||
  Multipole moments:                 0.044     0.044   0.0% |
  Pseudo density:                    8.083     6.537   4.6% |-|
   Symmetrize density:               1.545     1.545   1.1% |
 Hamiltonian:                       10.921     0.108   0.1% |
  Atomic:                            2.276     0.412   0.3% |
   XC Correction:                    1.864     1.864   1.3% ||
  Calculate atomic Hamiltonians:     3.186     3.186   2.2% ||
  Communicate:                       1.884     1.884   1.3% ||
  Poisson:                           0.048     0.048   0.0% |
  XC 3D grid:                        3.419     3.419   2.4% ||
 Orthonormalize:                     0.264     0.000   0.0% |
  calc_s_matrix:                     0.042     0.042   0.0% |
  inverse-cholesky:                  0.012     0.012   0.0% |
  projections:                       0.138     0.138   0.1% |
  rotate_psi_s:                      0.072     0.072   0.1% |
Set symmetry:                        0.003     0.003   0.0% |
Other:                               2.565     2.565   1.8% ||
-----------------------------------------------------------
Total:                                       143.415 100.0%

Memory usage: 477.77 MiB
Date: Wed Feb 22 17:00:54 2023
