
  ___ ___ ___ _ _ _  
 |   |   |_  | | | | 
 | | | | | . | | | | 
 |__ |  _|___|_____|  22.8.0
 |___|_|             

User:   nicog@vera55-1
Date:   Wed Feb 22 20:20:05 2023
Arch:   x86_64
Pid:    2288650
CWD:    /cephyr/users/nicog/Vera/Computational_Materials_2023/A4
Python: 3.10.4
gpaw:   /apps/Arch/software/GPAW/22.8.0-foss-2022a/lib/python3.10/site-packages/gpaw
_gpaw:  /apps/Arch/software/GPAW/22.8.0-foss-2022a/lib/python3.10/site-packages/
        _gpaw.cpython-310-x86_64-linux-gnu.so
ase:    /apps/Arch/software/ASE/3.22.1-foss-2022a/lib/python3.10/site-packages/ase (version 3.22.1)
numpy:  /apps/Arch/software/SciPy-bundle/2022.05-foss-2022a/lib/python3.10/site-packages/numpy (version 1.22.3)
scipy:  /apps/Arch/software/SciPy-bundle/2022.05-foss-2022a/lib/python3.10/site-packages/scipy (version 1.8.1)
libxc:  5.2.3
units:  Angstrom and eV
cores: 1
OpenMP: False
OMP_NUM_THREADS: 1

Input parameters:
  kpts: [4 4 1]
  mode: {ecut: 450.00000000000006,
         name: pw}
  xc: PBE

System changes: positions, numbers, cell, pbc, initial_charges, initial_magmoms 

Initialize ...

species:
  Au:
    name: Gold
    id: b12133f335f6ca0d89c4b1ccaa844e9a
    Z: 79.0
    valence: 11
    core: 68
    charge: 0.0
    file: /apps/Common/software/GPAW-setups/0.9.20000/Au.PBE.gz
    compensation charges: {type: gauss,
                           rc: 0.42,
                           lmax: 2}
    cutoffs: {filter: 2.33,
              core: 2.81}
    valence states:
      #              energy  rcut
      - 6s(1.00)    -5.728   1.323
      - 6p(0.00)    -0.775   1.323
      - 5d(10.00)    -6.891   1.323
      -  s          21.484   1.323
      -  p          26.436   1.323
      -  d          20.321   1.323
  
    # Using partial waves for Au as LCAO basis

Reference energy: -13948153.319951  # eV

Spin-paired calculation

Convergence criteria:
 Maximum [total energy] change in last 3 cyles: 0.0005 eV / electron
 Maximum integral of absolute [dens]ity change: 0.0001 electrons / valence electron
 Maximum integral of absolute [eigenst]ate change: 4e-08 eV^2 / valence electron
 Maximum number of scf [iter]ations: 333
 (Square brackets indicate name in SCF output, whereas a 'c' in
 the SCF output indicates the quantity has converged.)

Symmetries present (total): 6

  ( 1  0  0)  ( 1 -1  0)  ( 0  1  0)  ( 0 -1  0)  (-1  1  0)  (-1  0  0)
  ( 0  1  0)  ( 0 -1  0)  ( 1  0  0)  ( 1 -1  0)  (-1  0  0)  (-1  1  0)
  ( 0  0  1)  ( 0  0  1)  ( 0  0  1)  ( 0  0  1)  ( 0  0  1)  ( 0  0  1)
Note: your k-points are not as symmetric as your crystal!

16 k-points: 4 x 4 x 1 Monkhorst-Pack grid
6 k-points in the irreducible part of the Brillouin zone
       k-points in crystal coordinates                weights
   0:     0.12500000   -0.12500000    0.00000000          2/16
   1:     0.12500000    0.12500000    0.00000000          2/16
   2:     0.37500000   -0.37500000    0.00000000          2/16
   3:     0.37500000   -0.12500000    0.00000000          4/16
   4:     0.37500000    0.12500000    0.00000000          4/16
   5:     0.37500000    0.37500000    0.00000000          2/16

Wave functions: Plane wave expansion
  Cutoff energy: 450.000 eV
  Number of coefficients (min, max): 24789, 24831
  Pulay-stress correction: 0.000000 eV/Ang^3 (de/decut=0.000000)
  Using FFTW library
  ScaLapack parameters: grid=1x1, blocksize=None
  Wavefunction extrapolation:
    Improved wavefunction reuse through dual PAW basis 

Occupation numbers: Fermi-Dirac:
  width: 0.1000  # eV
 

Eigensolver
   Davidson(niter=2) 

Densities:
  Coarse grid: 45*45*84 grid
  Fine grid: 90*90*168 grid
  Total Charge: 0.000000 

Density mixing:
  Method: separate
  Backend: pulay
  Linear mixing parameter: 0.05
  old densities: 5
  Damping of long wavelength oscillations: 50 

Hamiltonian:
  XC and Coulomb potentials evaluated on a 90*90*168 grid
  Using the PBE Exchange-Correlation functional
  External potential:
    NoExternalPotential
 

XC parameters: PBE with 2 nearest neighbor stencil

Memory estimate:
  Process memory now: 299.31 MiB
  Calculator: 621.86 MiB
    Density: 72.95 MiB
      Arrays: 33.74 MiB
      Localized functions: 26.23 MiB
      Mixer: 12.98 MiB
    Hamiltonian: 22.60 MiB
      Arrays: 22.06 MiB
      XC: 0.00 MiB
      Poisson: 0.00 MiB
      vbar: 0.54 MiB
    Wavefunctions: 526.31 MiB
      Arrays psit_nG: 416.02 MiB
      Eigensolver: 76.35 MiB
      Projections: 8.14 MiB
      Projectors: 17.03 MiB
      PW-descriptor: 8.76 MiB

Total number of cores used: 1

Number of atoms: 27
Number of atomic orbitals: 243
Number of bands in calculation: 183
Number of valence electrons: 297
Bands to converge: occupied

... initialized

Initializing position-dependent things.

Density initialized from atomic densities
Creating initial wave functions:
  183 bands from LCAO basis set

                                              
                                              
                                              
                                              
                                              
                  Au     Au     Au            
                                              
            Au     AAu    AAu    Au           
       Au     Au     AAu    Au                
                                              
        Au     Au     AAu    Au     Au        
                                              
                 Au     Au     Au             
                                              
           Au      Au     Au                  
                                              
                                              
                                              
                                              

Positions:
   0 Au     1.477146    0.852831    6.000000    ( 0.0000,  0.0000,  0.0000)
   1 Au     4.431438    0.852831    6.000000    ( 0.0000,  0.0000,  0.0000)
   2 Au     7.385730    0.852831    6.000000    ( 0.0000,  0.0000,  0.0000)
   3 Au     2.954292    3.411323    6.000000    ( 0.0000,  0.0000,  0.0000)
   4 Au     5.908584    3.411323    6.000000    ( 0.0000,  0.0000,  0.0000)
   5 Au     8.862876    3.411323    6.000000    ( 0.0000,  0.0000,  0.0000)
   6 Au     4.431438    5.969815    6.000000    ( 0.0000,  0.0000,  0.0000)
   7 Au     7.385730    5.969815    6.000000    ( 0.0000,  0.0000,  0.0000)
   8 Au    10.340022    5.969815    6.000000    ( 0.0000,  0.0000,  0.0000)
   9 Au     0.000000    1.705661    8.412169    ( 0.0000,  0.0000,  0.0000)
  10 Au     2.954292    1.705661    8.412169    ( 0.0000,  0.0000,  0.0000)
  11 Au     5.908584    1.705661    8.412169    ( 0.0000,  0.0000,  0.0000)
  12 Au     1.477146    4.264153    8.412169    ( 0.0000,  0.0000,  0.0000)
  13 Au     4.431438    4.264153    8.412169    ( 0.0000,  0.0000,  0.0000)
  14 Au     7.385730    4.264153    8.412169    ( 0.0000,  0.0000,  0.0000)
  15 Au     2.954292    6.822645    8.412169    ( 0.0000,  0.0000,  0.0000)
  16 Au     5.908584    6.822645    8.412169    ( 0.0000,  0.0000,  0.0000)
  17 Au     8.862876    6.822645    8.412169    ( 0.0000,  0.0000,  0.0000)
  18 Au     0.000000    0.000000   10.824339    ( 0.0000,  0.0000,  0.0000)
  19 Au     2.954292    0.000000   10.824339    ( 0.0000,  0.0000,  0.0000)
  20 Au     5.908584    0.000000   10.824339    ( 0.0000,  0.0000,  0.0000)
  21 Au     1.477146    2.558492   10.824339    ( 0.0000,  0.0000,  0.0000)
  22 Au     4.431438    2.558492   10.824339    ( 0.0000,  0.0000,  0.0000)
  23 Au     7.385730    2.558492   10.824339    ( 0.0000,  0.0000,  0.0000)
  24 Au     2.954292    5.116984   10.824339    ( 0.0000,  0.0000,  0.0000)
  25 Au     5.908584    5.116984   10.824339    ( 0.0000,  0.0000,  0.0000)
  26 Au     8.862876    5.116984   10.824339    ( 0.0000,  0.0000,  0.0000)

Unit cell:
           periodic     x           y           z      points  spacing
  1. axis:    yes    8.862876    0.000000    0.000000    45     0.1706
  2. axis:    yes    4.431438    7.675476    0.000000    45     0.1706
  3. axis:    yes    0.000000    0.000000   16.824339    84     0.2003

  Lengths:   8.862876   8.862876  16.824339
  Angles:   90.000000  90.000000  60.000000

Effective grid spacing dv^(1/3) = 0.1888

     iter     time        total  log10-change:
                         energy  eigst   dens
iter:   1 20:21:53   -85.477926
iter:   2 20:22:41   -84.116876  -1.83  -1.35
iter:   3 20:23:28   -79.193484  -1.31  -1.37
iter:   4 20:24:13   -78.983893  -2.67  -1.78
iter:   5 20:25:01   -78.937186  -2.28  -1.86
iter:   6 20:25:48   -79.442411  -2.44  -2.12
iter:   7 20:26:36   -78.913002  -2.05  -2.01
iter:   8 20:27:24   -78.897892  -3.53  -2.48
iter:   9 20:28:12   -78.852818c -3.01  -2.48
iter:  10 20:29:00   -78.835134c -3.69  -2.81
