
  ___ ___ ___ _ _ _  
 |   |   |_  | | | | 
 | | | | | . | | | | 
 |__ |  _|___|_____|  22.8.0
 |___|_|             

User:   nicog@vera22-2
Date:   Thu Feb 23 17:23:10 2023
Arch:   x86_64
Pid:    1063694
CWD:    /cephyr/users/nicog/Vera/Computational_Materials_2023/A4
Python: 3.10.4
gpaw:   /apps/Arch/software/GPAW/22.8.0-foss-2022a/lib/python3.10/site-packages/gpaw
_gpaw:  /apps/Arch/software/GPAW/22.8.0-foss-2022a/lib/python3.10/site-packages/
        _gpaw.cpython-310-x86_64-linux-gnu.so
ase:    /apps/Arch/software/ASE/3.22.1-foss-2022a/lib/python3.10/site-packages/ase (version 3.22.1)
numpy:  /apps/Arch/software/SciPy-bundle/2022.05-foss-2022a/lib/python3.10/site-packages/numpy (version 1.22.3)
scipy:  /apps/Arch/software/SciPy-bundle/2022.05-foss-2022a/lib/python3.10/site-packages/scipy (version 1.8.1)
libxc:  5.2.3
units:  Angstrom and eV
cores: 16
OpenMP: False
OMP_NUM_THREADS: 1

Input parameters:
  kpts: [4 4 1]
  mode: {ecut: 450.00000000000006,
         name: pw}
  xc: PBE

System changes: positions, numbers, cell, pbc, initial_charges, initial_magmoms 

Initialize ...

species:
  Au:
    name: Gold
    id: b12133f335f6ca0d89c4b1ccaa844e9a
    Z: 79.0
    valence: 11
    core: 68
    charge: 0.0
    file: /apps/Common/software/GPAW-setups/0.9.20000/Au.PBE.gz
    compensation charges: {type: gauss,
                           rc: 0.42,
                           lmax: 2}
    cutoffs: {filter: 2.33,
              core: 2.81}
    valence states:
      #              energy  rcut
      - 6s(1.00)    -5.728   1.323
      - 6p(0.00)    -0.775   1.323
      - 5d(10.00)    -6.891   1.323
      -  s          21.484   1.323
      -  p          26.436   1.323
      -  d          20.321   1.323
  
    # Using partial waves for Au as LCAO basis

Reference energy: -13948153.319951  # eV

Spin-paired calculation

Convergence criteria:
 Maximum [total energy] change in last 3 cyles: 0.0005 eV / electron
 Maximum integral of absolute [dens]ity change: 0.0001 electrons / valence electron
 Maximum integral of absolute [eigenst]ate change: 4e-08 eV^2 / valence electron
 Maximum number of scf [iter]ations: 333
 (Square brackets indicate name in SCF output, whereas a 'c' in
 the SCF output indicates the quantity has converged.)

Symmetries present (total): 6

  ( 1  0  0)  ( 1 -1  0)  ( 0  1  0)  ( 0 -1  0)  (-1  1  0)  (-1  0  0)
  ( 0  1  0)  ( 0 -1  0)  ( 1  0  0)  ( 1 -1  0)  (-1  0  0)  (-1  1  0)
  ( 0  0  1)  ( 0  0  1)  ( 0  0  1)  ( 0  0  1)  ( 0  0  1)  ( 0  0  1)
Note: your k-points are not as symmetric as your crystal!

16 k-points: 4 x 4 x 1 Monkhorst-Pack grid
6 k-points in the irreducible part of the Brillouin zone
       k-points in crystal coordinates                weights
   0:     0.12500000   -0.12500000    0.00000000          2/16
   1:     0.12500000    0.12500000    0.00000000          2/16
   2:     0.37500000   -0.37500000    0.00000000          2/16
   3:     0.37500000   -0.12500000    0.00000000          4/16
   4:     0.37500000    0.12500000    0.00000000          4/16
   5:     0.37500000    0.37500000    0.00000000          2/16

Wave functions: Plane wave expansion
  Cutoff energy: 450.000 eV
  Number of coefficients (min, max): 24789, 24831
  Pulay-stress correction: 0.000000 eV/Ang^3 (de/decut=0.000000)
  Using FFTW library
  ScaLapack parameters: grid=1x1, blocksize=None
  Wavefunction extrapolation:
    Improved wavefunction reuse through dual PAW basis 

Occupation numbers: Fermi-Dirac:
  width: 0.1000  # eV
 

Eigensolver
   Davidson(niter=2) 

Densities:
  Coarse grid: 45*45*84 grid
  Fine grid: 90*90*168 grid
  Total Charge: 0.000000 

Density mixing:
  Method: separate
  Backend: pulay
  Linear mixing parameter: 0.05
  old densities: 5
  Damping of long wavelength oscillations: 50 

Hamiltonian:
  XC and Coulomb potentials evaluated on a 90*90*168 grid
  Using the PBE Exchange-Correlation functional
  External potential:
    NoExternalPotential
 

XC parameters: PBE with 2 nearest neighbor stencil

Memory estimate:
  Process memory now: 296.29 MiB
  Calculator: 304.85 MiB
    Density: 9.21 MiB
      Arrays: 4.23 MiB
      Localized functions: 3.28 MiB
      Mixer: 1.70 MiB
    Hamiltonian: 2.83 MiB
      Arrays: 2.77 MiB
      XC: 0.00 MiB
      Poisson: 0.00 MiB
      vbar: 0.07 MiB
    Wavefunctions: 292.81 MiB
      Arrays psit_nG: 208.01 MiB
      Eigensolver: 76.35 MiB
      Projections: 0.51 MiB
      Projectors: 1.07 MiB
      PW-descriptor: 6.88 MiB

Total number of cores used: 16
Parallelization over k-points: 2
Domain decomposition: 2 x 2 x 2

Number of atoms: 27
Number of atomic orbitals: 243
Number of bands in calculation: 183
Number of valence electrons: 297
Bands to converge: occupied

... initialized

Initializing position-dependent things.

Density initialized from atomic densities
Creating initial wave functions:
  183 bands from LCAO basis set

                                              
                                              
                                              
                                              
                                              
                  Au     Au     Au            
                                              
            Au     AAu    AAu    Au           
       Au     Au     AAu    Au                
                                              
        Au     Au     AAu    Au     Au        
                                              
                 Au     Au     Au             
                                              
           Au      Au     Au                  
                                              
                                              
                                              
                                              

Positions:
   0 Au     1.477146    0.852831    6.000000    ( 0.0000,  0.0000,  0.0000)
   1 Au     4.431438    0.852831    6.000000    ( 0.0000,  0.0000,  0.0000)
   2 Au     7.385730    0.852831    6.000000    ( 0.0000,  0.0000,  0.0000)
   3 Au     2.954292    3.411323    6.000000    ( 0.0000,  0.0000,  0.0000)
   4 Au     5.908584    3.411323    6.000000    ( 0.0000,  0.0000,  0.0000)
   5 Au     8.862876    3.411323    6.000000    ( 0.0000,  0.0000,  0.0000)
   6 Au     4.431438    5.969815    6.000000    ( 0.0000,  0.0000,  0.0000)
   7 Au     7.385730    5.969815    6.000000    ( 0.0000,  0.0000,  0.0000)
   8 Au    10.340022    5.969815    6.000000    ( 0.0000,  0.0000,  0.0000)
   9 Au     0.000000    1.705661    8.412169    ( 0.0000,  0.0000,  0.0000)
  10 Au     2.954292    1.705661    8.412169    ( 0.0000,  0.0000,  0.0000)
  11 Au     5.908584    1.705661    8.412169    ( 0.0000,  0.0000,  0.0000)
  12 Au     1.477146    4.264153    8.412169    ( 0.0000,  0.0000,  0.0000)
  13 Au     4.431438    4.264153    8.412169    ( 0.0000,  0.0000,  0.0000)
  14 Au     7.385730    4.264153    8.412169    ( 0.0000,  0.0000,  0.0000)
  15 Au     2.954292    6.822645    8.412169    ( 0.0000,  0.0000,  0.0000)
  16 Au     5.908584    6.822645    8.412169    ( 0.0000,  0.0000,  0.0000)
  17 Au     8.862876    6.822645    8.412169    ( 0.0000,  0.0000,  0.0000)
  18 Au     0.000000    0.000000   10.824339    ( 0.0000,  0.0000,  0.0000)
  19 Au     2.954292    0.000000   10.824339    ( 0.0000,  0.0000,  0.0000)
  20 Au     5.908584    0.000000   10.824339    ( 0.0000,  0.0000,  0.0000)
  21 Au     1.477146    2.558492   10.824339    ( 0.0000,  0.0000,  0.0000)
  22 Au     4.431438    2.558492   10.824339    ( 0.0000,  0.0000,  0.0000)
  23 Au     7.385730    2.558492   10.824339    ( 0.0000,  0.0000,  0.0000)
  24 Au     2.954292    5.116984   10.824339    ( 0.0000,  0.0000,  0.0000)
  25 Au     5.908584    5.116984   10.824339    ( 0.0000,  0.0000,  0.0000)
  26 Au     8.862876    5.116984   10.824339    ( 0.0000,  0.0000,  0.0000)

Unit cell:
           periodic     x           y           z      points  spacing
  1. axis:    yes    8.862876    0.000000    0.000000    45     0.1706
  2. axis:    yes    4.431438    7.675476    0.000000    45     0.1706
  3. axis:    yes    0.000000    0.000000   16.824339    84     0.2003

  Lengths:   8.862876   8.862876  16.824339
  Angles:   90.000000  90.000000  60.000000

Effective grid spacing dv^(1/3) = 0.1888

     iter     time        total  log10-change:
                         energy  eigst   dens
iter:   1 17:23:24   -85.477926
iter:   2 17:23:30   -84.116876  -1.83  -1.35
iter:   3 17:23:35   -79.193484  -1.31  -1.37
iter:   4 17:23:40   -78.983893  -2.67  -1.78
iter:   5 17:23:45   -78.937185  -2.28  -1.86
iter:   6 17:23:51   -79.442426  -2.44  -2.12
iter:   7 17:23:56   -78.912997  -2.05  -2.01
iter:   8 17:24:01   -78.897889  -3.53  -2.48
iter:   9 17:24:06   -78.852819c -3.01  -2.48
iter:  10 17:24:11   -78.835133c -3.69  -2.81
iter:  11 17:24:17   -78.835147c -5.07  -3.39
iter:  12 17:24:22   -78.835096c -5.74  -3.39
iter:  13 17:24:27   -78.834801c -5.24  -3.40
iter:  14 17:24:32   -78.835619c -4.99  -3.65
iter:  15 17:24:37   -78.835192c -5.96  -3.63
iter:  16 17:24:43   -78.834850c -6.04  -3.94
iter:  17 17:24:48   -78.834720c -5.85  -4.00c
iter:  18 17:24:53   -78.834668c -6.94  -4.13c
iter:  19 17:24:58   -78.834680c -6.45  -4.28c
iter:  20 17:25:03   -78.834666c -7.18  -4.25c
iter:  21 17:25:09   -78.834658c -7.42c -4.67c

Converged after 21 iterations.

Dipole moment: (-0.120566, -0.069609, -0.000000) |e|*Ang

Energy contributions relative to reference atoms: (reference = -13948153.319951)

Kinetic:       -306.734048
Potential:     +247.880924
External:        +0.000000
XC:             -22.846636
Entropy (-ST):   -0.275260
Local:           +3.002732
--------------------------
Free energy:    -78.972288
Extrapolated:   -78.834658

Showing only first 2 kpts
 Kpt  Band  Eigenvalues  Occupancy
  0   146     -0.38163    1.99999
  0   147     -0.38163    1.99999
  0   148      0.31745    1.98669
  0   149      0.31746    1.98669

  1   146     -0.56018    2.00000
  1   147     -0.37124    1.99999
  1   148     -0.37124    1.99999
  1   149     -0.18733    1.99991


Fermi level: 0.81801

No gap
Timing:                              incl.     excl.
-----------------------------------------------------------
Hamiltonian:                         0.312     0.004   0.0% |
 Atomic:                             0.073     0.001   0.0% |
  XC Correction:                     0.071     0.071   0.1% |
 Calculate atomic Hamiltonians:      0.082     0.082   0.1% |
 Communicate:                        0.071     0.071   0.1% |
 Initialize Hamiltonian:             0.000     0.000   0.0% |
 Poisson:                            0.001     0.001   0.0% |
 XC 3D grid:                         0.081     0.081   0.1% |
LCAO initialization:                 7.143     0.062   0.1% |
 LCAO eigensolver:                   0.407     0.001   0.0% |
  Calculate projections:             0.003     0.003   0.0% |
  DenseAtomicCorrection:             0.004     0.004   0.0% |
  Distribute overlap matrix:         0.050     0.050   0.0% |
  Orbital Layouts:                   0.094     0.094   0.1% |
  Potential matrix:                  0.246     0.246   0.2% |
  Sum over cells:                    0.008     0.008   0.0% |
 LCAO to grid:                       6.452     6.452   5.4% |-|
 Set positions (LCAO WFS):           0.222     0.068   0.1% |
  Basic WFS set positions:           0.004     0.004   0.0% |
  Basis functions set positions:     0.000     0.000   0.0% |
  P tci:                             0.093     0.093   0.1% |
  ST tci:                            0.029     0.029   0.0% |
  mktci:                             0.028     0.028   0.0% |
PWDescriptor:                        0.336     0.336   0.3% |
SCF-cycle:                         109.088     0.912   0.8% |
 Davidson:                          92.674    17.029  14.3% |-----|
  Apply H:                          10.589    10.319   8.7% |--|
   HMM T:                            0.269     0.269   0.2% |
  Subspace diag:                    15.912     0.009   0.0% |
   calc_h_matrix:                   12.251     1.692   1.4% ||
    Apply H:                        10.559    10.289   8.6% |--|
     HMM T:                          0.271     0.271   0.2% |
   diagonalize:                      0.988     0.988   0.8% |
   rotate_psi:                       2.664     2.664   2.2% ||
  calc. matrices:                   31.803    10.588   8.9% |---|
   Apply H:                         21.216    20.679  17.4% |------|
    HMM T:                           0.536     0.536   0.5% |
  diagonalize:                      12.074    12.074  10.1% |---|
  rotate_psi:                        5.268     5.268   4.4% |-|
 Density:                            9.080     0.001   0.0% |
  Atomic density matrices:           0.089     0.089   0.1% |
  Mix:                               2.113     2.113   1.8% ||
  Multipole moments:                 0.004     0.004   0.0% |
  Pseudo density:                    6.873     5.593   4.7% |-|
   Symmetrize density:               1.280     1.280   1.1% |
 Hamiltonian:                        6.107     0.082   0.1% |
  Atomic:                            1.449     0.025   0.0% |
   XC Correction:                    1.424     1.424   1.2% |
  Calculate atomic Hamiltonians:     1.538     1.538   1.3% ||
  Communicate:                       1.429     1.429   1.2% |
  Poisson:                           0.021     0.021   0.0% |
  XC 3D grid:                        1.588     1.588   1.3% ||
 Orthonormalize:                     0.315     0.001   0.0% |
  calc_s_matrix:                     0.038     0.038   0.0% |
  inverse-cholesky:                  0.018     0.018   0.0% |
  projections:                       0.190     0.190   0.2% |
  rotate_psi_s:                      0.068     0.068   0.1% |
Set symmetry:                        0.003     0.003   0.0% |
Other:                               2.178     2.178   1.8% ||
-----------------------------------------------------------
Total:                                       119.059 100.0%

Memory usage: 413.02 MiB
Date: Thu Feb 23 17:25:09 2023
