
  ___ ___ ___ _ _ _  
 |   |   |_  | | | | 
 | | | | | . | | | | 
 |__ |  _|___|_____|  22.8.0
 |___|_|             

User:   nicog@vera13-3
Date:   Fri Feb 24 14:25:12 2023
Arch:   x86_64
Pid:    2953712
CWD:    /cephyr/users/nicog/Vera/Computational_Materials_2023/A4
Python: 3.10.4
gpaw:   /apps/Arch/software/GPAW/22.8.0-foss-2022a/lib/python3.10/site-packages/gpaw
_gpaw:  /apps/Arch/software/GPAW/22.8.0-foss-2022a/lib/python3.10/site-packages/
        _gpaw.cpython-310-x86_64-linux-gnu.so
ase:    /apps/Arch/software/ASE/3.22.1-foss-2022a/lib/python3.10/site-packages/ase (version 3.22.1)
numpy:  /apps/Arch/software/SciPy-bundle/2022.05-foss-2022a/lib/python3.10/site-packages/numpy (version 1.22.3)
scipy:  /apps/Arch/software/SciPy-bundle/2022.05-foss-2022a/lib/python3.10/site-packages/scipy (version 1.8.1)
libxc:  5.2.3
units:  Angstrom and eV
cores: 16
OpenMP: False
OMP_NUM_THREADS: 1

Input parameters:
  kpts: [4 4 1]
  mode: {ecut: 450.00000000000006,
         name: pw}
  spinpol: True
  xc: PBE

System changes: positions, numbers, cell, pbc, initial_charges, initial_magmoms 

Initialize ...

species:
  Au:
    name: Gold
    id: b12133f335f6ca0d89c4b1ccaa844e9a
    Z: 79.0
    valence: 11
    core: 68
    charge: 0.0
    file: /apps/Common/software/GPAW-setups/0.9.20000/Au.PBE.gz
    compensation charges: {type: gauss,
                           rc: 0.42,
                           lmax: 2}
    cutoffs: {filter: 2.33,
              core: 2.81}
    valence states:
      #              energy  rcut
      - 6s(1.00)    -5.728   1.323
      - 6p(0.00)    -0.775   1.323
      - 5d(10.00)    -6.891   1.323
      -  s          21.484   1.323
      -  p          26.436   1.323
      -  d          20.321   1.323
  
    # Using partial waves for Au as LCAO basis

  O:
    name: Oxygen
    id: 32ecd46bf208036f09c70b0ec9a88b78
    Z: 8.0
    valence: 6
    core: 2
    charge: 0.0
    file: /apps/Common/software/GPAW-setups/0.9.20000/O.PBE.gz
    compensation charges: {type: gauss,
                           rc: 0.21,
                           lmax: 2}
    cutoffs: {filter: 1.17,
              core: 0.83}
    valence states:
      #              energy  rcut
      - 2s(2.00)   -23.961   0.688
      - 2p(4.00)    -9.029   0.598
      -  s           3.251   0.688
      -  p          18.182   0.598
      -  d           0.000   0.619
  
    # Using partial waves for O as LCAO basis

  C:
    name: Carbon
    id: 4aa54d4b901d75f77cc0ea3eec22967b
    Z: 6.0
    valence: 4
    core: 2
    charge: 0.0
    file: /apps/Common/software/GPAW-setups/0.9.20000/C.PBE.gz
    compensation charges: {type: gauss,
                           rc: 0.20,
                           lmax: 2}
    cutoffs: {filter: 1.14,
              core: 1.14}
    valence states:
      #              energy  rcut
      - 2s(2.00)   -13.751   0.635
      - 2p(2.00)    -5.284   0.635
      -  s          13.461   0.635
      -  p          21.927   0.635
      -  d           0.000   0.635
  
    # Using partial waves for C as LCAO basis

Reference energy: -13951221.800367  # eV

Spin-polarized calculation.
Magnetic moment: 0.000000

Convergence criteria:
 Maximum [total energy] change in last 3 cyles: 0.0005 eV / electron
 Maximum integral of absolute [dens]ity change: 0.0001 electrons / valence electron
 Maximum integral of absolute [eigenst]ate change: 4e-08 eV^2 / valence electron
 Maximum number of scf [iter]ations: 333
 (Square brackets indicate name in SCF output, whereas a 'c' in
 the SCF output indicates the quantity has converged.)

Symmetries present (total): 6

  ( 1  0  0)  ( 1 -1  0)  ( 0  1  0)  ( 0 -1  0)  (-1  1  0)  (-1  0  0)
  ( 0  1  0)  ( 0 -1  0)  ( 1  0  0)  ( 1 -1  0)  (-1  0  0)  (-1  1  0)
  ( 0  0  1)  ( 0  0  1)  ( 0  0  1)  ( 0  0  1)  ( 0  0  1)  ( 0  0  1)
Note: your k-points are not as symmetric as your crystal!

16 k-points: 4 x 4 x 1 Monkhorst-Pack grid
6 k-points in the irreducible part of the Brillouin zone
       k-points in crystal coordinates                weights
   0:     0.12500000   -0.12500000    0.00000000          2/16
   1:     0.12500000    0.12500000    0.00000000          2/16
   2:     0.37500000   -0.37500000    0.00000000          2/16
   3:     0.37500000   -0.12500000    0.00000000          4/16
   4:     0.37500000    0.12500000    0.00000000          4/16
   5:     0.37500000    0.37500000    0.00000000          2/16

Wave functions: Plane wave expansion
  Cutoff energy: 450.000 eV
  Number of coefficients (min, max): 24789, 24831
  Pulay-stress correction: 0.000000 eV/Ang^3 (de/decut=0.000000)
  Using FFTW library
  ScaLapack parameters: grid=1x1, blocksize=None
  Wavefunction extrapolation:
    Improved wavefunction reuse through dual PAW basis 

Occupation numbers: Fermi-Dirac:
  width: 0.1000  # eV
 

Eigensolver
   Davidson(niter=2) 

Densities:
  Coarse grid: 45*45*84 grid
  Fine grid: 90*90*168 grid
  Total Charge: 0.000000 

Density mixing:
  Method: difference
  Backend: pulay
  Linear mixing parameter: 0.05
  old densities: 5
  Damping of long wavelength oscillations: 50 

Hamiltonian:
  XC and Coulomb potentials evaluated on a 90*90*168 grid
  Using the PBE Exchange-Correlation functional
  External potential:
    NoExternalPotential
 

XC parameters: PBE with 2 nearest neighbor stencil

Memory estimate:
  Process memory now: 608.42 MiB
  Calculator: 535.78 MiB
    Density: 13.02 MiB
      Arrays: 5.70 MiB
      Localized functions: 4.95 MiB
      Mixer: 2.37 MiB
    Hamiltonian: 4.37 MiB
      Arrays: 4.23 MiB
      XC: 0.00 MiB
      Poisson: 0.00 MiB
      vbar: 0.13 MiB
    Wavefunctions: 518.39 MiB
      Arrays psit_nG: 429.66 MiB
      Eigensolver: 78.96 MiB
      Projections: 1.11 MiB
      Projectors: 1.78 MiB
      PW-descriptor: 6.88 MiB

Total number of cores used: 16
Parallelization over k-points: 2
Domain decomposition: 2 x 2 x 2

Number of atoms: 29
Number of atomic orbitals: 251
Number of bands in calculation: 189
Number of valence electrons: 307
Bands to converge: occupied

... initialized

Initializing position-dependent things.

Density initialized from atomic densities
Creating initial wave functions:
  189 bands from LCAO basis set

                                              
                                              
                                              
                                              
                                              
                                              
                                              
                                              
       O                                      
                  Au     Au     Au            
       C                                      
            Au     AAu    AAu    Au           
       Au     Au     AAu    Au                
                                              
        Au     Au     AAu    Au     Au        
                                              
                 Au     Au     Au             
                                              
           Au      Au     Au                  
                                              
                                              
                                              
                                              

Positions:
   0 Au     1.477146    0.852831    6.000000    ( 0.0000,  0.0000,  0.0000)
   1 Au     4.431438    0.852831    6.000000    ( 0.0000,  0.0000,  0.0000)
   2 Au     7.385730    0.852831    6.000000    ( 0.0000,  0.0000,  0.0000)
   3 Au     2.954292    3.411323    6.000000    ( 0.0000,  0.0000,  0.0000)
   4 Au     5.908584    3.411323    6.000000    ( 0.0000,  0.0000,  0.0000)
   5 Au     8.862876    3.411323    6.000000    ( 0.0000,  0.0000,  0.0000)
   6 Au     4.431438    5.969815    6.000000    ( 0.0000,  0.0000,  0.0000)
   7 Au     7.385730    5.969815    6.000000    ( 0.0000,  0.0000,  0.0000)
   8 Au    10.340022    5.969815    6.000000    ( 0.0000,  0.0000,  0.0000)
   9 Au     0.000000    1.705661    8.412169    ( 0.0000,  0.0000,  0.0000)
  10 Au     2.954292    1.705661    8.412169    ( 0.0000,  0.0000,  0.0000)
  11 Au     5.908584    1.705661    8.412169    ( 0.0000,  0.0000,  0.0000)
  12 Au     1.477146    4.264153    8.412169    ( 0.0000,  0.0000,  0.0000)
  13 Au     4.431438    4.264153    8.412169    ( 0.0000,  0.0000,  0.0000)
  14 Au     7.385730    4.264153    8.412169    ( 0.0000,  0.0000,  0.0000)
  15 Au     2.954292    6.822645    8.412169    ( 0.0000,  0.0000,  0.0000)
  16 Au     5.908584    6.822645    8.412169    ( 0.0000,  0.0000,  0.0000)
  17 Au     8.862876    6.822645    8.412169    ( 0.0000,  0.0000,  0.0000)
  18 Au     0.000000    0.000000   10.824339    ( 0.0000,  0.0000,  0.0000)
  19 Au     2.954292    0.000000   10.824339    ( 0.0000,  0.0000,  0.0000)
  20 Au     5.908584    0.000000   10.824339    ( 0.0000,  0.0000,  0.0000)
  21 Au     1.477146    2.558492   10.824339    ( 0.0000,  0.0000,  0.0000)
  22 Au     4.431438    2.558492   10.824339    ( 0.0000,  0.0000,  0.0000)
  23 Au     7.385730    2.558492   10.824339    ( 0.0000,  0.0000,  0.0000)
  24 Au     2.954292    5.116984   10.824339    ( 0.0000,  0.0000,  0.0000)
  25 Au     5.908584    5.116984   10.824339    ( 0.0000,  0.0000,  0.0000)
  26 Au     8.862876    5.116984   10.824339    ( 0.0000,  0.0000,  0.0000)
  27 O      0.000000    0.000000   13.974339    ( 0.0000,  0.0000,  0.0000)
  28 C      0.000000    0.000000   12.823999    ( 0.0000,  0.0000,  0.0000)

Unit cell:
           periodic     x           y           z      points  spacing
  1. axis:    yes    8.862876    0.000000    0.000000    45     0.1706
  2. axis:    yes    4.431438    7.675476    0.000000    45     0.1706
  3. axis:    yes    0.000000    0.000000   16.824339    84     0.2003

  Lengths:   8.862876   8.862876  16.824339
  Angles:   90.000000  90.000000  60.000000

Effective grid spacing dv^(1/3) = 0.1888

     iter     time        total  log10-change:  magmom
                         energy  eigst   dens
iter:   1 14:25:41  -100.902819                  +0.0000
iter:   2 14:25:52   -99.079402  -1.62  -1.32    -0.0000
iter:   3 14:26:03   -94.730125  -1.75  -1.35    -0.0000
iter:   4 14:26:14   -93.528443  -2.09  -1.55    +0.0000
iter:   5 14:26:25   -93.341854  -2.02  -1.76    +0.0000
iter:   6 14:26:36   -93.208664  -3.00  -2.08    +0.0000
iter:   7 14:26:47   -93.238480c -3.10  -2.23    +0.0000
iter:   8 14:26:58   -93.188899c -3.74  -2.45    +0.0000
iter:   9 14:27:09   -93.155504c -3.43  -2.61    +0.0000
iter:  10 14:27:20   -93.153531c -4.72  -2.92    +0.0000
iter:  11 14:27:31   -93.151162c -4.58  -2.98    +0.0000
iter:  12 14:27:42   -93.150782c -4.30  -3.16    +0.0000
iter:  13 14:27:53   -93.150062c -5.56  -3.14    +0.0000
iter:  14 14:28:04   -93.149643c -5.11  -3.26    +0.0000
iter:  15 14:28:15   -93.149543c -5.41  -3.58    +0.0000
iter:  16 14:28:26   -93.149570c -5.59  -3.66    +0.0000
iter:  17 14:28:37   -93.149623c -6.42  -3.95    +0.0000
iter:  18 14:28:48   -93.149507c -6.04  -4.01c   +0.0000
iter:  19 14:28:59   -93.149530c -6.99  -4.19c   +0.0000
iter:  20 14:29:10   -93.149529c -7.64c -4.34c   +0.0000

Converged after 20 iterations.

Dipole moment: (-0.107932, -0.062315, 0.235315) |e|*Ang

Total magnetic moment: (0.000000, 0.000000, 0.000000)
Local magnetic moments:
   0 Au ( 0.000000,  0.000000,  0.000000)
   1 Au ( 0.000000,  0.000000,  0.000000)
   2 Au ( 0.000000,  0.000000,  0.000000)
   3 Au ( 0.000000,  0.000000,  0.000000)
   4 Au ( 0.000000,  0.000000,  0.000000)
   5 Au ( 0.000000,  0.000000, -0.000000)
   6 Au ( 0.000000,  0.000000,  0.000000)
   7 Au ( 0.000000,  0.000000, -0.000000)
   8 Au ( 0.000000,  0.000000, -0.000000)
   9 Au ( 0.000000,  0.000000, -0.000000)
  10 Au ( 0.000000,  0.000000,  0.000000)
  11 Au ( 0.000000,  0.000000,  0.000000)
  12 Au ( 0.000000,  0.000000, -0.000000)
  13 Au ( 0.000000,  0.000000,  0.000000)
  14 Au ( 0.000000,  0.000000, -0.000000)
  15 Au ( 0.000000,  0.000000, -0.000000)
  16 Au ( 0.000000,  0.000000, -0.000000)
  17 Au ( 0.000000,  0.000000, -0.000000)
  18 Au ( 0.000000,  0.000000, -0.000000)
  19 Au ( 0.000000,  0.000000,  0.000000)
  20 Au ( 0.000000,  0.000000,  0.000000)
  21 Au ( 0.000000,  0.000000,  0.000000)
  22 Au ( 0.000000,  0.000000,  0.000000)
  23 Au ( 0.000000,  0.000000,  0.000000)
  24 Au ( 0.000000,  0.000000,  0.000000)
  25 Au ( 0.000000,  0.000000,  0.000000)
  26 Au ( 0.000000,  0.000000, -0.000000)
  27 O  ( 0.000000,  0.000000, -0.000000)
  28 C  ( 0.000000,  0.000000, -0.000000)

Energy contributions relative to reference atoms: (reference = -13951221.800367)

Kinetic:       -291.983509
Potential:     +231.216568
External:        +0.000000
XC:             -35.261442
Entropy (-ST):   -0.307229
Local:           +3.032468
--------------------------
Free energy:    -93.303143
Extrapolated:   -93.149529

Spin contamination: 0.000000 electrons
Showing only first 2 kpts
                      Up                     Down
 Kpt  Band  Eigenvalues  Occupancy  Eigenvalues  Occupancy
  0   151     -0.14755    1.00000     -0.14755    1.00000
  0   152      0.23574    0.99980      0.23574    0.99980
  0   153      0.56009    0.99498      0.56009    0.99498
  0   154      0.63999    0.98892      0.63999    0.98892

  1   151     -0.22111    1.00000     -0.22111    1.00000
  1   152     -0.15786    1.00000     -0.15786    1.00000
  1   153      0.01374    0.99998      0.01374    0.99998
  1   154      0.42999    0.99863      0.42999    0.99863


Fermi level: 1.08911

No gap

Forces in eV/Ang:
  0 Au    0.00400    0.00231   -0.07539
  1 Au   -0.00000    0.01688   -0.02411
  2 Au   -0.00400    0.00231   -0.07539
  3 Au    0.01462   -0.00844   -0.02411
  4 Au   -0.01462   -0.00844   -0.02411
  5 Au    0.00000    0.03064   -0.02774
  6 Au   -0.00000   -0.00462   -0.07539
  7 Au    0.02653   -0.01532   -0.02774
  8 Au   -0.02653   -0.01532   -0.02774
  9 Au    0.00000   -0.10538    0.09579
 10 Au    0.02290    0.01322    0.01241
 11 Au   -0.02290    0.01322    0.01241
 12 Au   -0.02111    0.01219   -0.02030
 13 Au    0.00000   -0.02644    0.01241
 14 Au    0.02111    0.01219   -0.02030
 15 Au    0.09126    0.05269    0.09579
 16 Au   -0.09126    0.05269    0.09579
 17 Au    0.00000   -0.02437   -0.02030
 18 Au   -0.00000    0.00000   -0.34111
 19 Au    0.28663    0.01731   -0.03208
 20 Au   -0.28663    0.01731   -0.03208
 21 Au    0.15831    0.23957   -0.03208
 22 Au    0.00000    0.00000    0.04634
 23 Au   -0.15831    0.23957   -0.03208
 24 Au   -0.12832   -0.25689   -0.03208
 25 Au    0.12832   -0.25689   -0.03208
 26 Au    0.00000    0.00000    0.02043
 27 O     0.00000   -0.00000   -0.29051
 28 C    -0.00000    0.00000    0.94256

System changes: positions 

Initializing position-dependent things.

Density initialized from wave functions
                                              
                                              
                                              
                                              
                                              
                                              
                                              
                                              
       O                                      
       C          Au     Au     Au            
            Au      Au     Au                 
                   Au     Au     Au           
       Au     Au     AAu    Au                
                                              
        Au     Au     AAu    Au     Au        
                                              
                 Au     Au     Au             
                                              
           Au      Au     Au                  
                                              
                                              
                                              
                                              

Positions:
   0 Au     1.477146    0.852831    6.000000    ( 0.0000,  0.0000,  0.0000)
   1 Au     4.431438    0.852831    6.000000    ( 0.0000,  0.0000,  0.0000)
   2 Au     7.385730    0.852831    6.000000    ( 0.0000,  0.0000,  0.0000)
   3 Au     2.954292    3.411323    6.000000    ( 0.0000,  0.0000,  0.0000)
   4 Au     5.908584    3.411323    6.000000    ( 0.0000,  0.0000,  0.0000)
   5 Au     8.862876    3.411323    6.000000    ( 0.0000,  0.0000,  0.0000)
   6 Au     4.431438    5.969815    6.000000    ( 0.0000,  0.0000,  0.0000)
   7 Au     7.385730    5.969815    6.000000    ( 0.0000,  0.0000,  0.0000)
   8 Au    10.340022    5.969815    6.000000    ( 0.0000,  0.0000,  0.0000)
   9 Au     0.000000    1.705661    8.412169    ( 0.0000,  0.0000,  0.0000)
  10 Au     2.954292    1.705661    8.412169    ( 0.0000,  0.0000,  0.0000)
  11 Au     5.908584    1.705661    8.412169    ( 0.0000,  0.0000,  0.0000)
  12 Au     1.477146    4.264153    8.412169    ( 0.0000,  0.0000,  0.0000)
  13 Au     4.431438    4.264153    8.412169    ( 0.0000,  0.0000,  0.0000)
  14 Au     7.385730    4.264153    8.412169    ( 0.0000,  0.0000,  0.0000)
  15 Au     2.954292    6.822645    8.412169    ( 0.0000,  0.0000,  0.0000)
  16 Au     5.908584    6.822645    8.412169    ( 0.0000,  0.0000,  0.0000)
  17 Au     8.862876    6.822645    8.412169    ( 0.0000,  0.0000,  0.0000)
  18 Au     0.000000    0.000000   10.824339    ( 0.0000,  0.0000,  0.0000)
  19 Au     2.954292    0.000000   10.824339    ( 0.0000,  0.0000,  0.0000)
  20 Au     5.908584    0.000000   10.824339    ( 0.0000,  0.0000,  0.0000)
  21 Au     1.477146    2.558492   10.824339    ( 0.0000,  0.0000,  0.0000)
  22 Au     4.431438    2.558492   10.824339    ( 0.0000,  0.0000,  0.0000)
  23 Au     7.385730    2.558492   10.824339    ( 0.0000,  0.0000,  0.0000)
  24 Au     2.954292    5.116984   10.824339    ( 0.0000,  0.0000,  0.0000)
  25 Au     5.908584    5.116984   10.824339    ( 0.0000,  0.0000,  0.0000)
  26 Au     8.862876    5.116984   10.824339    ( 0.0000,  0.0000,  0.0000)
  27 O      0.000000   -0.000000   13.856522    ( 0.0000,  0.0000,  0.0000)
  28 C     -0.000000    0.000000   13.206254    ( 0.0000,  0.0000,  0.0000)

Unit cell:
           periodic     x           y           z      points  spacing
  1. axis:    yes    8.862876    0.000000    0.000000    45     0.1706
  2. axis:    yes    4.431438    7.675476    0.000000    45     0.1706
  3. axis:    yes    0.000000    0.000000   16.824339    84     0.2003

  Lengths:   8.862876   8.862876  16.824339
  Angles:   90.000000  90.000000  60.000000

Effective grid spacing dv^(1/3) = 0.1888

     iter     time        total  log10-change:  magmom
                         energy  eigst   dens
iter:   1 14:29:26   -52.407804  -0.69           +0.0000
iter:   2 14:29:37   -46.307322  -1.88  -1.51    +0.0000
iter:   3 14:29:48   -43.290200  -1.90  -1.73    +0.0000
iter:   4 14:29:59   -41.461504  -1.73  -1.99    -0.0000
iter:   5 14:30:10   -40.655396  -2.02  -1.93    -0.0000
iter:   6 14:30:21   -40.463110  -2.05  -2.01    -0.0000
iter:   7 14:30:32   -40.123382  -2.58  -2.23    -0.0000
iter:   8 14:30:43   -40.095454  -3.01  -2.62    -0.0000
iter:   9 14:30:54   -40.097175c -4.09  -2.80    -0.0000
iter:  10 14:31:05   -40.106847c -3.86  -2.89    -0.0000
iter:  11 14:31:16   -40.101550c -4.11  -2.94    -0.0000
iter:  12 14:31:27   -40.102845c -4.78  -3.22    -0.0000
iter:  13 14:31:38   -40.100610c -4.39  -3.22    -0.0000
iter:  14 14:31:49   -40.100511c -5.16  -3.54    -0.0000
iter:  15 14:32:00   -40.100220c -5.84  -3.70    -0.0000
iter:  16 14:32:11   -40.100123c -5.86  -3.82    -0.0000
iter:  17 14:32:22   -40.100141c -6.37  -3.96    -0.0000
iter:  18 14:32:33   -40.100170c -6.36  -4.12c   -0.0000
iter:  19 14:32:44   -40.100175c -7.23  -4.28c   -0.0000
iter:  20 14:32:55   -40.100161c -6.92  -4.32c   -0.0000
iter:  21 14:33:06   -40.100168c -7.63c -4.66c   -0.0000

Converged after 21 iterations.

Dipole moment: (-0.117870, -0.068052, 0.905631) |e|*Ang

Total magnetic moment: (0.000000, 0.000000, -0.000000)
Local magnetic moments:
   0 Au ( 0.000000,  0.000000,  0.000000)
   1 Au ( 0.000000,  0.000000,  0.000000)
   2 Au ( 0.000000,  0.000000,  0.000000)
   3 Au ( 0.000000,  0.000000,  0.000000)
   4 Au ( 0.000000,  0.000000,  0.000000)
   5 Au ( 0.000000,  0.000000,  0.000000)
   6 Au ( 0.000000,  0.000000,  0.000000)
   7 Au ( 0.000000,  0.000000,  0.000000)
   8 Au ( 0.000000,  0.000000,  0.000000)
   9 Au ( 0.000000,  0.000000, -0.000000)
  10 Au ( 0.000000,  0.000000, -0.000000)
  11 Au ( 0.000000,  0.000000, -0.000000)
  12 Au ( 0.000000,  0.000000, -0.000000)
  13 Au ( 0.000000,  0.000000, -0.000000)
  14 Au ( 0.000000,  0.000000, -0.000000)
  15 Au ( 0.000000,  0.000000, -0.000000)
  16 Au ( 0.000000,  0.000000, -0.000000)
  17 Au ( 0.000000,  0.000000, -0.000000)
  18 Au ( 0.000000,  0.000000,  0.000000)
  19 Au ( 0.000000,  0.000000, -0.000000)
  20 Au ( 0.000000,  0.000000, -0.000000)
  21 Au ( 0.000000,  0.000000, -0.000000)
  22 Au ( 0.000000,  0.000000,  0.000000)
  23 Au ( 0.000000,  0.000000, -0.000000)
  24 Au ( 0.000000,  0.000000, -0.000000)
  25 Au ( 0.000000,  0.000000, -0.000000)
  26 Au ( 0.000000,  0.000000, -0.000000)
  27 O  ( 0.000000,  0.000000,  0.000000)
  28 C  ( 0.000000,  0.000000,  0.000000)

Energy contributions relative to reference atoms: (reference = -13951221.800367)

Kinetic:        -86.947161
Potential:     +103.908960
External:        +0.000000
XC:             -60.255621
Entropy (-ST):   -0.296076
Local:           +3.341693
--------------------------
Free energy:    -40.248206
Extrapolated:   -40.100168

Spin contamination: 0.000000 electrons
Showing only first 2 kpts
                      Up                     Down
 Kpt  Band  Eigenvalues  Occupancy  Eigenvalues  Occupancy
  0   151      0.02081    1.00000      0.02081    1.00000
  0   152      0.32711    0.99992      0.32711    0.99992
  0   153      0.73875    0.99530      0.73875    0.99530
  0   154      0.78983    0.99219      0.78983    0.99219

  1   151     -0.04658    1.00000     -0.04658    1.00000
  1   152      0.03043    1.00000      0.03043    1.00000
  1   153      0.17946    0.99998      0.17946    0.99998
  1   154      0.44308    0.99975      0.44308    0.99975


Fermi level: 1.27425

No gap

Forces in eV/Ang:
  0 Au    0.00210    0.00121   -0.06715
  1 Au    0.00000    0.01468   -0.04246
  2 Au   -0.00210    0.00121   -0.06715
  3 Au    0.01271   -0.00734   -0.04246
  4 Au   -0.01271   -0.00734   -0.04246
  5 Au   -0.00000    0.02215   -0.04166
  6 Au   -0.00000   -0.00243   -0.06715
  7 Au    0.01918   -0.01108   -0.04166
  8 Au   -0.01918   -0.01108   -0.04166
  9 Au    0.00000   -0.05586    0.08718
 10 Au    0.02073    0.01197    0.00485
 11 Au   -0.02073    0.01197    0.00485
 12 Au   -0.02188    0.01263   -0.03121
 13 Au   -0.00000   -0.02394    0.00485
 14 Au    0.02188    0.01263   -0.03121
 15 Au    0.04838    0.02793    0.08718
 16 Au   -0.04838    0.02793    0.08718
 17 Au   -0.00000   -0.02526   -0.03121
 18 Au   -0.00000    0.00000    0.53312
 19 Au    0.17319    0.01387   -0.01236
 20 Au   -0.17319    0.01387   -0.01236
 21 Au    0.09861    0.14305   -0.01236
 22 Au   -0.00000    0.00000    0.06944
 23 Au   -0.09861    0.14305   -0.01236
 24 Au   -0.07458   -0.15692   -0.01236
 25 Au    0.07458   -0.15692   -0.01236
 26 Au    0.00000    0.00000    0.04997
 27 O     0.00000   -0.00000  371.45590
 28 C     0.00000    0.00000 -371.88741

System changes: positions 

Initializing position-dependent things.

Density initialized from wave functions
                                              
                                              
                                              
                                              
                                              
                                              
                                              
                                              
       O                                      
       C          Au     Au     Au            
                                              
            Au     AAu    AAu    Au           
       Au     Au      Au                      
              Au     Au     Au                
        Au     Au     AAu    Au     Au        
                                              
                 Au     Au     Au             
                                              
           Au      Au     Au                  
                                              
                                              
                                              
                                              

Positions:
   0 Au     1.477146    0.852831    6.000000    ( 0.0000,  0.0000,  0.0000)
   1 Au     4.431438    0.852831    6.000000    ( 0.0000,  0.0000,  0.0000)
   2 Au     7.385730    0.852831    6.000000    ( 0.0000,  0.0000,  0.0000)
   3 Au     2.954292    3.411323    6.000000    ( 0.0000,  0.0000,  0.0000)
   4 Au     5.908584    3.411323    6.000000    ( 0.0000,  0.0000,  0.0000)
   5 Au     8.862876    3.411323    6.000000    ( 0.0000,  0.0000,  0.0000)
   6 Au     4.431438    5.969815    6.000000    ( 0.0000,  0.0000,  0.0000)
   7 Au     7.385730    5.969815    6.000000    ( 0.0000,  0.0000,  0.0000)
   8 Au    10.340022    5.969815    6.000000    ( 0.0000,  0.0000,  0.0000)
   9 Au     0.000000    1.705661    8.412169    ( 0.0000,  0.0000,  0.0000)
  10 Au     2.954292    1.705661    8.412169    ( 0.0000,  0.0000,  0.0000)
  11 Au     5.908584    1.705661    8.412169    ( 0.0000,  0.0000,  0.0000)
  12 Au     1.477146    4.264153    8.412169    ( 0.0000,  0.0000,  0.0000)
  13 Au     4.431438    4.264153    8.412169    ( 0.0000,  0.0000,  0.0000)
  14 Au     7.385730    4.264153    8.412169    ( 0.0000,  0.0000,  0.0000)
  15 Au     2.954292    6.822645    8.412169    ( 0.0000,  0.0000,  0.0000)
  16 Au     5.908584    6.822645    8.412169    ( 0.0000,  0.0000,  0.0000)
  17 Au     8.862876    6.822645    8.412169    ( 0.0000,  0.0000,  0.0000)
  18 Au     0.000000    0.000000   10.824339    ( 0.0000,  0.0000,  0.0000)
  19 Au     2.954292    0.000000   10.824339    ( 0.0000,  0.0000,  0.0000)
  20 Au     5.908584    0.000000   10.824339    ( 0.0000,  0.0000,  0.0000)
  21 Au     1.477146    2.558492   10.824339    ( 0.0000,  0.0000,  0.0000)
  22 Au     4.431438    2.558492   10.824339    ( 0.0000,  0.0000,  0.0000)
  23 Au     7.385730    2.558492   10.824339    ( 0.0000,  0.0000,  0.0000)
  24 Au     2.954292    5.116984   10.824339    ( 0.0000,  0.0000,  0.0000)
  25 Au     5.908584    5.116984   10.824339    ( 0.0000,  0.0000,  0.0000)
  26 Au     8.862876    5.116984   10.824339    ( 0.0000,  0.0000,  0.0000)
  27 O      0.000000   -0.000000   14.177298    ( 0.0000,  0.0000,  0.0000)
  28 C     -0.000000    0.000000   13.161935    ( 0.0000,  0.0000,  0.0000)

Unit cell:
           periodic     x           y           z      points  spacing
  1. axis:    yes    8.862876    0.000000    0.000000    45     0.1706
  2. axis:    yes    4.431438    7.675476    0.000000    45     0.1706
  3. axis:    yes    0.000000    0.000000   16.824339    84     0.2003

  Lengths:   8.862876   8.862876  16.824339
  Angles:   90.000000  90.000000  60.000000

Effective grid spacing dv^(1/3) = 0.1888

     iter     time        total  log10-change:  magmom
                         energy  eigst   dens
iter:   1 14:33:21  -103.835578  -0.30           -0.0000
iter:   2 14:33:32   -95.528309  -1.02  -1.44    -0.0000
iter:   3 14:33:43   -93.524950  -2.01  -1.81    -0.0000
iter:   4 14:33:54   -92.758272  -2.48  -2.05    -0.0000
iter:   5 14:34:05   -92.182550  -2.14  -2.19    +0.0000
iter:   6 14:34:16   -92.054273  -3.17  -2.19    -0.0000
iter:   7 14:34:27   -91.956173  -2.21  -2.35    -0.0000
iter:   8 14:34:38   -91.878580  -3.49  -2.37    -0.0000
iter:   9 14:34:49   -91.877009c -3.30  -2.67    -0.0000
iter:  10 14:35:00   -91.878355c -4.37  -2.93    -0.0000
iter:  11 14:35:11   -91.884198c -3.58  -2.99    -0.0000
iter:  12 14:35:22   -91.881073c -4.85  -3.08    -0.0000
iter:  13 14:35:33   -91.880100c -4.93  -3.21    -0.0000
iter:  14 14:35:44   -91.880418c -5.40  -3.39    -0.0000
iter:  15 14:35:55   -91.880230c -5.02  -3.51    -0.0000
iter:  16 14:36:06   -91.880206c -5.82  -3.90    -0.0000
iter:  17 14:36:17   -91.880147c -6.61  -4.01c   -0.0000
iter:  18 14:36:28   -91.880117c -6.18  -4.14c   -0.0000
iter:  19 14:36:39   -91.880118c -7.23  -4.21c   -0.0000
iter:  20 14:36:50   -91.880128c -7.34  -4.33c   -0.0000
iter:  21 14:37:01   -91.880124c -7.55c -4.38c   -0.0000

Converged after 21 iterations.

Dipole moment: (-0.117814, -0.068020, 0.542117) |e|*Ang

Total magnetic moment: (0.000000, 0.000000, -0.000000)
Local magnetic moments:
   0 Au ( 0.000000,  0.000000, -0.000000)
   1 Au ( 0.000000,  0.000000,  0.000000)
   2 Au ( 0.000000,  0.000000, -0.000000)
   3 Au ( 0.000000,  0.000000,  0.000000)
   4 Au ( 0.000000,  0.000000,  0.000000)
   5 Au ( 0.000000,  0.000000, -0.000000)
   6 Au ( 0.000000,  0.000000, -0.000000)
   7 Au ( 0.000000,  0.000000, -0.000000)
   8 Au ( 0.000000,  0.000000, -0.000000)
   9 Au ( 0.000000,  0.000000,  0.000000)
  10 Au ( 0.000000,  0.000000, -0.000000)
  11 Au ( 0.000000,  0.000000, -0.000000)
  12 Au ( 0.000000,  0.000000,  0.000000)
  13 Au ( 0.000000,  0.000000, -0.000000)
  14 Au ( 0.000000,  0.000000,  0.000000)
  15 Au ( 0.000000,  0.000000,  0.000000)
  16 Au ( 0.000000,  0.000000,  0.000000)
  17 Au ( 0.000000,  0.000000,  0.000000)
  18 Au ( 0.000000,  0.000000,  0.000000)
  19 Au ( 0.000000,  0.000000, -0.000000)
  20 Au ( 0.000000,  0.000000, -0.000000)
  21 Au ( 0.000000,  0.000000, -0.000000)
  22 Au ( 0.000000,  0.000000, -0.000000)
  23 Au ( 0.000000,  0.000000, -0.000000)
  24 Au ( 0.000000,  0.000000, -0.000000)
  25 Au ( 0.000000,  0.000000, -0.000000)
  26 Au ( 0.000000,  0.000000, -0.000000)
  27 O  ( 0.000000,  0.000000, -0.000000)
  28 C  ( 0.000000,  0.000000,  0.000000)

Energy contributions relative to reference atoms: (reference = -13951221.800367)

Kinetic:       -272.983888
Potential:     +216.812391
External:        +0.000000
XC:             -38.535702
Entropy (-ST):   -0.298220
Local:           +2.976185
--------------------------
Free energy:    -92.029234
Extrapolated:   -91.880124

Spin contamination: 0.000000 electrons
Showing only first 2 kpts
                      Up                     Down
 Kpt  Band  Eigenvalues  Occupancy  Eigenvalues  Occupancy
  0   151     -0.06985    1.00000     -0.06985    1.00000
  0   152      0.21397    0.99993      0.21397    0.99993
  0   153      0.64312    0.99507      0.64312    0.99507
  0   154      0.67863    0.99298      0.67863    0.99298

  1   151     -0.13964    1.00000     -0.13964    1.00000
  1   152     -0.06550    1.00000     -0.06550    1.00000
  1   153      0.08384    0.99998      0.08384    0.99998
  1   154      0.31551    0.99981      0.31551    0.99981


Fermi level: 1.17382

No gap

Forces in eV/Ang:
  0 Au    0.00041    0.00024   -0.06417
  1 Au   -0.00000    0.01177   -0.04275
  2 Au   -0.00041    0.00024   -0.06417
  3 Au    0.01019   -0.00588   -0.04275
  4 Au   -0.01019   -0.00588   -0.04275
  5 Au    0.00000    0.02076   -0.04183
  6 Au   -0.00000   -0.00048   -0.06417
  7 Au    0.01798   -0.01038   -0.04183
  8 Au   -0.01798   -0.01038   -0.04183
  9 Au    0.00000   -0.05661    0.09138
 10 Au    0.01810    0.01045    0.01083
 11 Au   -0.01810    0.01045    0.01083
 12 Au   -0.01802    0.01040   -0.02242
 13 Au   -0.00000   -0.02090    0.01083
 14 Au    0.01802    0.01040   -0.02242
 15 Au    0.04902    0.02830    0.09138
 16 Au   -0.04902    0.02830    0.09138
 17 Au    0.00000   -0.02080   -0.02242
 18 Au   -0.00000    0.00000    0.49150
 19 Au    0.17315    0.01227   -0.01862
 20 Au   -0.17315    0.01227   -0.01862
 21 Au    0.09720    0.14382   -0.01862
 22 Au    0.00000    0.00000    0.05623
 23 Au   -0.09720    0.14382   -0.01862
 24 Au   -0.07595   -0.15609   -0.01862
 25 Au    0.07595   -0.15609   -0.01862
 26 Au    0.00000    0.00000    0.03820
 27 O     0.00000    0.00000   22.28936
 28 C    -0.00000    0.00000  -22.53219

System changes: positions 

Initializing position-dependent things.

Density initialized from wave functions
                                              
                                              
                                              
                                              
                                              
                                              
                                              
                                              
       O                                      
       C          Au     Au     Au            
                                              
            Au     AAu    AAu    Au           
       Au     Au     AAu    Au                
                                              
        Au     Au     AAu    Au     Au        
                                              
                 Au     Au     Au             
                                              
           Au      Au     Au                  
                                              
                                              
                                              
                                              

Positions:
   0 Au     1.477146    0.852831    6.000000    ( 0.0000,  0.0000,  0.0000)
   1 Au     4.431438    0.852831    6.000000    ( 0.0000,  0.0000,  0.0000)
   2 Au     7.385730    0.852831    6.000000    ( 0.0000,  0.0000,  0.0000)
   3 Au     2.954292    3.411323    6.000000    ( 0.0000,  0.0000,  0.0000)
   4 Au     5.908584    3.411323    6.000000    ( 0.0000,  0.0000,  0.0000)
   5 Au     8.862876    3.411323    6.000000    ( 0.0000,  0.0000,  0.0000)
   6 Au     4.431438    5.969815    6.000000    ( 0.0000,  0.0000,  0.0000)
   7 Au     7.385730    5.969815    6.000000    ( 0.0000,  0.0000,  0.0000)
   8 Au    10.340022    5.969815    6.000000    ( 0.0000,  0.0000,  0.0000)
   9 Au     0.000000    1.705661    8.412169    ( 0.0000,  0.0000,  0.0000)
  10 Au     2.954292    1.705661    8.412169    ( 0.0000,  0.0000,  0.0000)
  11 Au     5.908584    1.705661    8.412169    ( 0.0000,  0.0000,  0.0000)
  12 Au     1.477146    4.264153    8.412169    ( 0.0000,  0.0000,  0.0000)
  13 Au     4.431438    4.264153    8.412169    ( 0.0000,  0.0000,  0.0000)
  14 Au     7.385730    4.264153    8.412169    ( 0.0000,  0.0000,  0.0000)
  15 Au     2.954292    6.822645    8.412169    ( 0.0000,  0.0000,  0.0000)
  16 Au     5.908584    6.822645    8.412169    ( 0.0000,  0.0000,  0.0000)
  17 Au     8.862876    6.822645    8.412169    ( 0.0000,  0.0000,  0.0000)
  18 Au     0.000000    0.000000   10.824339    ( 0.0000,  0.0000,  0.0000)
  19 Au     2.954292    0.000000   10.824339    ( 0.0000,  0.0000,  0.0000)
  20 Au     5.908584    0.000000   10.824339    ( 0.0000,  0.0000,  0.0000)
  21 Au     1.477146    2.558492   10.824339    ( 0.0000,  0.0000,  0.0000)
  22 Au     4.431438    2.558492   10.824339    ( 0.0000,  0.0000,  0.0000)
  23 Au     7.385730    2.558492   10.824339    ( 0.0000,  0.0000,  0.0000)
  24 Au     2.954292    5.116984   10.824339    ( 0.0000,  0.0000,  0.0000)
  25 Au     5.908584    5.116984   10.824339    ( 0.0000,  0.0000,  0.0000)
  26 Au     8.862876    5.116984   10.824339    ( 0.0000,  0.0000,  0.0000)
  27 O      0.000000   -0.000000   13.990939    ( 0.0000,  0.0000,  0.0000)
  28 C     -0.000000    0.000000   13.006381    ( 0.0000,  0.0000,  0.0000)

Unit cell:
           periodic     x           y           z      points  spacing
  1. axis:    yes    8.862876    0.000000    0.000000    45     0.1706
  2. axis:    yes    4.431438    7.675476    0.000000    45     0.1706
  3. axis:    yes    0.000000    0.000000   16.824339    84     0.2003

  Lengths:   8.862876   8.862876  16.824339
  Angles:   90.000000  90.000000  60.000000

Effective grid spacing dv^(1/3) = 0.1888

     iter     time        total  log10-change:  magmom
                         energy  eigst   dens
iter:   1 14:37:16   -94.788666  -1.19           -0.0000
iter:   2 14:37:27   -92.876018  -2.26  -1.82    -0.0000
iter:   3 14:37:38   -91.757778  -2.16  -2.07    -0.0000
iter:   4 14:37:49   -91.296802  -2.25  -2.31    -0.0000
iter:   5 14:38:00   -91.152836  -2.95  -2.31    -0.0000
iter:   6 14:38:11   -91.142577  -3.10  -2.58    -0.0000
iter:   7 14:38:22   -91.106699c -3.28  -2.71    -0.0000
iter:   8 14:38:33   -91.109213c -3.89  -3.01    -0.0000
iter:   9 14:38:44   -91.101911c -4.10  -3.01    -0.0000
iter:  10 14:38:55   -91.101723c -4.25  -3.18    -0.0000
iter:  11 14:39:06   -91.100631c -5.28  -3.45    -0.0000
iter:  12 14:39:17   -91.100472c -5.81  -3.63    -0.0000
iter:  13 14:39:28   -91.100372c -5.50  -3.73    -0.0000
iter:  14 14:39:39   -91.100296c -5.68  -3.88    -0.0000
iter:  15 14:39:50   -91.100215c -5.99  -4.10c   -0.0000
iter:  16 14:40:01   -91.100216c -7.02  -4.35c   -0.0000
iter:  17 14:40:12   -91.100227c -7.48c -4.42c   -0.0000

Converged after 17 iterations.

Dipole moment: (-0.113816, -0.065712, 0.572891) |e|*Ang

Total magnetic moment: (0.000000, 0.000000, -0.000000)
Local magnetic moments:
   0 Au ( 0.000000,  0.000000, -0.000000)
   1 Au ( 0.000000,  0.000000,  0.000000)
   2 Au ( 0.000000,  0.000000, -0.000000)
   3 Au ( 0.000000,  0.000000,  0.000000)
   4 Au ( 0.000000,  0.000000,  0.000000)
   5 Au ( 0.000000,  0.000000, -0.000000)
   6 Au ( 0.000000,  0.000000, -0.000000)
   7 Au ( 0.000000,  0.000000, -0.000000)
   8 Au ( 0.000000,  0.000000, -0.000000)
   9 Au ( 0.000000,  0.000000, -0.000000)
  10 Au ( 0.000000,  0.000000,  0.000000)
  11 Au ( 0.000000,  0.000000,  0.000000)
  12 Au ( 0.000000,  0.000000,  0.000000)
  13 Au ( 0.000000,  0.000000,  0.000000)
  14 Au ( 0.000000,  0.000000,  0.000000)
  15 Au ( 0.000000,  0.000000, -0.000000)
  16 Au ( 0.000000,  0.000000, -0.000000)
  17 Au ( 0.000000,  0.000000,  0.000000)
  18 Au ( 0.000000,  0.000000, -0.000000)
  19 Au ( 0.000000,  0.000000, -0.000000)
  20 Au ( 0.000000,  0.000000, -0.000000)
  21 Au ( 0.000000,  0.000000, -0.000000)
  22 Au ( 0.000000,  0.000000,  0.000000)
  23 Au ( 0.000000,  0.000000, -0.000000)
  24 Au ( 0.000000,  0.000000, -0.000000)
  25 Au ( 0.000000,  0.000000, -0.000000)
  26 Au ( 0.000000,  0.000000, -0.000000)
  27 O  ( 0.000000,  0.000000,  0.000000)
  28 C  ( 0.000000,  0.000000,  0.000000)

Energy contributions relative to reference atoms: (reference = -13951221.800367)

Kinetic:       -264.393085
Potential:     +210.557019
External:        +0.000000
XC:             -40.058103
Entropy (-ST):   -0.300658
Local:           +2.944270
--------------------------
Free energy:    -91.250556
Extrapolated:   -91.100227

Spin contamination: 0.000000 electrons
Showing only first 2 kpts
                      Up                     Down
 Kpt  Band  Eigenvalues  Occupancy  Eigenvalues  Occupancy
  0   151     -0.05725    1.00000     -0.05725    1.00000
  0   152      0.28139    0.99989      0.28139    0.99989
  0   153      0.65694    0.99525      0.65694    0.99525
  0   154      0.71288    0.99173      0.71288    0.99173

  1   151     -0.12679    1.00000     -0.12679    1.00000
  1   152     -0.05656    1.00000     -0.05656    1.00000
  1   153      0.10430    0.99998      0.10430    0.99998
  1   154      0.42060    0.99955      0.42060    0.99955


Fermi level: 1.19151

No gap

Forces in eV/Ang:
  0 Au    0.00436    0.00252   -0.06812
  1 Au    0.00000    0.01620   -0.03048
  2 Au   -0.00436    0.00252   -0.06812
  3 Au    0.01403   -0.00810   -0.03048
  4 Au   -0.01403   -0.00810   -0.03048
  5 Au    0.00000    0.02779   -0.03173
  6 Au    0.00000   -0.00503   -0.06812
  7 Au    0.02407   -0.01390   -0.03173
  8 Au   -0.02407   -0.01390   -0.03173
  9 Au    0.00000   -0.07908    0.09624
 10 Au    0.02234    0.01290    0.00573
 11 Au   -0.02234    0.01290    0.00573
 12 Au   -0.02251    0.01300   -0.03133
 13 Au    0.00000   -0.02580    0.00573
 14 Au    0.02251    0.01300   -0.03133
 15 Au    0.06848    0.03954    0.09624
 16 Au   -0.06848    0.03954    0.09624
 17 Au    0.00000   -0.02600   -0.03133
 18 Au   -0.00000    0.00000    0.34362
 19 Au    0.22976    0.01553   -0.02460
 20 Au   -0.22976    0.01553   -0.02460
 21 Au    0.12833    0.19121   -0.02460
 22 Au    0.00000    0.00000    0.06326
 23 Au   -0.12833    0.19121   -0.02460
 24 Au   -0.10143   -0.20674   -0.02460
 25 Au    0.10143   -0.20674   -0.02460
 26 Au   -0.00000    0.00000    0.04018
 27 O     0.00000    0.00000   31.30722
 28 C     0.00000    0.00000  -31.41267

System changes: positions 

Initializing position-dependent things.

Density initialized from wave functions
                                              
                                              
                                              
                                              
                                              
                                              
                                              
                                              
       O          Au     Au     Au            
       C                                      
            Au     AAu    AAu    Au           
       Au     Au      Au                      
              Au     Au     Au                
        Au     Au     AAu    Au     Au        
                                              
                 Au     Au     Au             
                                              
           Au      Au     Au                  
                                              
                                              
                                              
                                              

Positions:
   0 Au     1.477146    0.852831    6.000000    ( 0.0000,  0.0000,  0.0000)
   1 Au     4.431438    0.852831    6.000000    ( 0.0000,  0.0000,  0.0000)
   2 Au     7.385730    0.852831    6.000000    ( 0.0000,  0.0000,  0.0000)
   3 Au     2.954292    3.411323    6.000000    ( 0.0000,  0.0000,  0.0000)
   4 Au     5.908584    3.411323    6.000000    ( 0.0000,  0.0000,  0.0000)
   5 Au     8.862876    3.411323    6.000000    ( 0.0000,  0.0000,  0.0000)
   6 Au     4.431438    5.969815    6.000000    ( 0.0000,  0.0000,  0.0000)
   7 Au     7.385730    5.969815    6.000000    ( 0.0000,  0.0000,  0.0000)
   8 Au    10.340022    5.969815    6.000000    ( 0.0000,  0.0000,  0.0000)
   9 Au     0.000000    1.705661    8.412169    ( 0.0000,  0.0000,  0.0000)
  10 Au     2.954292    1.705661    8.412169    ( 0.0000,  0.0000,  0.0000)
  11 Au     5.908584    1.705661    8.412169    ( 0.0000,  0.0000,  0.0000)
  12 Au     1.477146    4.264153    8.412169    ( 0.0000,  0.0000,  0.0000)
  13 Au     4.431438    4.264153    8.412169    ( 0.0000,  0.0000,  0.0000)
  14 Au     7.385730    4.264153    8.412169    ( 0.0000,  0.0000,  0.0000)
  15 Au     2.954292    6.822645    8.412169    ( 0.0000,  0.0000,  0.0000)
  16 Au     5.908584    6.822645    8.412169    ( 0.0000,  0.0000,  0.0000)
  17 Au     8.862876    6.822645    8.412169    ( 0.0000,  0.0000,  0.0000)
  18 Au     0.000000    0.000000   10.824339    ( 0.0000,  0.0000,  0.0000)
  19 Au     2.954292    0.000000   10.824339    ( 0.0000,  0.0000,  0.0000)
  20 Au     5.908584    0.000000   10.824339    ( 0.0000,  0.0000,  0.0000)
  21 Au     1.477146    2.558492   10.824339    ( 0.0000,  0.0000,  0.0000)
  22 Au     4.431438    2.558492   10.824339    ( 0.0000,  0.0000,  0.0000)
  23 Au     7.385730    2.558492   10.824339    ( 0.0000,  0.0000,  0.0000)
  24 Au     2.954292    5.116984   10.824339    ( 0.0000,  0.0000,  0.0000)
  25 Au     5.908584    5.116984   10.824339    ( 0.0000,  0.0000,  0.0000)
  26 Au     8.862876    5.116984   10.824339    ( 0.0000,  0.0000,  0.0000)
  27 O     -0.000000    0.000000   13.526958    ( 0.0000,  0.0000,  0.0000)
  28 C      0.000000    0.000000   12.459252    ( 0.0000,  0.0000,  0.0000)

Unit cell:
           periodic     x           y           z      points  spacing
  1. axis:    yes    8.862876    0.000000    0.000000    45     0.1706
  2. axis:    yes    4.431438    7.675476    0.000000    45     0.1706
  3. axis:    yes    0.000000    0.000000   16.824339    84     0.2003

  Lengths:   8.862876   8.862876  16.824339
  Angles:   90.000000  90.000000  60.000000

Effective grid spacing dv^(1/3) = 0.1888

     iter     time        total  log10-change:  magmom
                         energy  eigst   dens
iter:   1 14:40:27  -296.264355  -0.39           -0.0000
iter:   2 14:40:38  -148.039257  -0.40  -0.89    -0.0000
iter:   3 14:40:49   -75.667903  -0.31  -1.27    -0.0000
iter:   4 14:41:00   -99.265146  +0.91  -1.47    +0.0000
iter:   5 14:41:11  -103.163856  +0.17  -1.44    -0.0000
iter:   6 14:41:22  -108.768358  -0.45  -1.62    -0.0000
iter:   7 14:41:33  -102.812247  -1.58  -1.55    -0.0000
iter:   8 14:41:44  -105.801916  -0.97  -1.65    -0.0000
iter:   9 14:41:55   -99.490225  -1.53  -1.65    -0.0000
iter:  10 14:42:06   -92.747166  -1.87  -1.67    -0.0000
iter:  11 14:42:17   -91.891841  -2.82  -1.98    -0.0000
iter:  12 14:42:28   -90.804578  -2.19  -2.11    -0.0000
iter:  13 14:42:39   -90.790672  -2.65  -2.42    -0.0000
iter:  14 14:42:50   -90.744127c -3.65  -2.41    -0.0000
iter:  15 14:43:01   -90.755704c -2.79  -2.46    -0.0000
iter:  16 14:43:12   -90.723247c -3.74  -2.65    +0.0000
iter:  17 14:43:23   -90.699877c -3.59  -2.76    +0.0000
iter:  18 14:43:34   -90.700306c -4.06  -3.00    +0.0000
iter:  19 14:43:45   -90.700908c -4.50  -3.07    -0.0000
iter:  20 14:43:56   -90.699094c -4.79  -3.16    -0.0000
iter:  21 14:44:07   -90.697966c -5.06  -3.24    -0.0000
iter:  22 14:44:18   -90.697099c -4.98  -3.34    -0.0000
iter:  23 14:44:29   -90.697428c -5.09  -3.49    -0.0000
iter:  24 14:44:40   -90.697368c -6.17  -3.58    -0.0000
iter:  25 14:44:51   -90.697010c -5.65  -3.70    -0.0000
iter:  26 14:45:02   -90.697018c -6.57  -4.06c   -0.0000
iter:  27 14:45:13   -90.696977c -6.38  -4.14c   -0.0000
iter:  28 14:45:24   -90.696977c -6.80  -4.29c   -0.0000
iter:  29 14:45:35   -90.696989c -6.72  -4.30c   -0.0000
iter:  30 14:45:46   -90.696988c -7.55c -4.47c   -0.0000

Converged after 30 iterations.

Dipole moment: (-0.094418, -0.054512, 0.211041) |e|*Ang

Total magnetic moment: (0.000000, 0.000000, -0.000000)
Local magnetic moments:
   0 Au ( 0.000000,  0.000000,  0.000000)
   1 Au ( 0.000000,  0.000000, -0.000000)
   2 Au ( 0.000000,  0.000000,  0.000000)
   3 Au ( 0.000000,  0.000000, -0.000000)
   4 Au ( 0.000000,  0.000000, -0.000000)
   5 Au ( 0.000000,  0.000000,  0.000000)
   6 Au ( 0.000000,  0.000000,  0.000000)
   7 Au ( 0.000000,  0.000000,  0.000000)
   8 Au ( 0.000000,  0.000000,  0.000000)
   9 Au ( 0.000000,  0.000000,  0.000000)
  10 Au ( 0.000000,  0.000000, -0.000000)
  11 Au ( 0.000000,  0.000000, -0.000000)
  12 Au ( 0.000000,  0.000000,  0.000000)
  13 Au ( 0.000000,  0.000000, -0.000000)
  14 Au ( 0.000000,  0.000000,  0.000000)
  15 Au ( 0.000000,  0.000000,  0.000000)
  16 Au ( 0.000000,  0.000000,  0.000000)
  17 Au ( 0.000000,  0.000000,  0.000000)
  18 Au ( 0.000000,  0.000000,  0.000000)
  19 Au ( 0.000000,  0.000000,  0.000000)
  20 Au ( 0.000000,  0.000000,  0.000000)
  21 Au ( 0.000000,  0.000000,  0.000000)
  22 Au ( 0.000000,  0.000000, -0.000000)
  23 Au ( 0.000000,  0.000000,  0.000000)
  24 Au ( 0.000000,  0.000000,  0.000000)
  25 Au ( 0.000000,  0.000000,  0.000000)
  26 Au ( 0.000000,  0.000000, -0.000000)
  27 O  ( 0.000000,  0.000000,  0.000000)
  28 C  ( 0.000000,  0.000000,  0.000000)

Energy contributions relative to reference atoms: (reference = -13951221.800367)

Kinetic:       -247.504044
Potential:     +195.152713
External:        +0.000000
XC:             -41.359581
Entropy (-ST):   -0.315435
Local:           +3.171642
--------------------------
Free energy:    -90.854705
Extrapolated:   -90.696988

Spin contamination: 0.000000 electrons
Showing only first 2 kpts
                      Up                     Down
 Kpt  Band  Eigenvalues  Occupancy  Eigenvalues  Occupancy
  0   151     -0.15912    1.00000     -0.15912    1.00000
  0   152      0.28724    0.99964      0.28724    0.99964
  0   153      0.54950    0.99506      0.54950    0.99506
  0   154      0.75952    0.96102      0.75952    0.96102

  1   151     -0.23821    1.00000     -0.23821    1.00000
  1   152     -0.17538    1.00000     -0.17538    1.00000
  1   153      0.00549    0.99998      0.00549    0.99998
  1   154      0.67290    0.98323      0.67290    0.98323


Fermi level: 1.08002

No gap

Forces in eV/Ang:
  0 Au    0.00776    0.00448   -0.11714
  1 Au    0.00000    0.01920   -0.03011
  2 Au   -0.00776    0.00448   -0.11714
  3 Au    0.01663   -0.00960   -0.03011
  4 Au   -0.01663   -0.00960   -0.03011
  5 Au    0.00000    0.03583   -0.05418
  6 Au    0.00000   -0.00896   -0.11714
  7 Au    0.03103   -0.01792   -0.05418
  8 Au   -0.03103   -0.01792   -0.05418
  9 Au    0.00000   -0.12927    0.03869
 10 Au    0.02430    0.01403    0.01364
 11 Au   -0.02430    0.01403    0.01364
 12 Au   -0.02784    0.01608   -0.01595
 13 Au    0.00000   -0.02806    0.01364
 14 Au    0.02784    0.01608   -0.01595
 15 Au    0.11195    0.06464    0.03869
 16 Au   -0.11195    0.06464    0.03869
 17 Au   -0.00000   -0.03215   -0.01595
 18 Au   -0.00000    0.00000  -13.84353
 19 Au    0.41342    0.02098   -0.04829
 20 Au   -0.41342    0.02098   -0.04829
 21 Au    0.22488    0.34754   -0.04829
 22 Au   -0.00000    0.00000    0.05924
 23 Au   -0.22488    0.34754   -0.04829
 24 Au   -0.18854   -0.36852   -0.04829
 25 Au    0.18854   -0.36852   -0.04829
 26 Au    0.00000   -0.00000    0.02341
 27 O    -0.00000    0.00000   12.76606
 28 C     0.00000    0.00000    1.78733

System changes: positions 

Initializing position-dependent things.

Density initialized from wave functions
                                              
                                              
                                              
                                              
                                              
                                              
                                              
                                              
       O                                      
                  Au     Au     Au            
       C                                      
            Au     AAu    AAu    Au           
       Au     Au      Au                      
              Au     Au     Au                
        Au     Au     AAu    Au     Au        
                                              
                 Au     Au     Au             
                                              
           Au      Au     Au                  
                                              
                                              
                                              
                                              

Positions:
   0 Au     1.477146    0.852831    6.000000    ( 0.0000,  0.0000,  0.0000)
   1 Au     4.431438    0.852831    6.000000    ( 0.0000,  0.0000,  0.0000)
   2 Au     7.385730    0.852831    6.000000    ( 0.0000,  0.0000,  0.0000)
   3 Au     2.954292    3.411323    6.000000    ( 0.0000,  0.0000,  0.0000)
   4 Au     5.908584    3.411323    6.000000    ( 0.0000,  0.0000,  0.0000)
   5 Au     8.862876    3.411323    6.000000    ( 0.0000,  0.0000,  0.0000)
   6 Au     4.431438    5.969815    6.000000    ( 0.0000,  0.0000,  0.0000)
   7 Au     7.385730    5.969815    6.000000    ( 0.0000,  0.0000,  0.0000)
   8 Au    10.340022    5.969815    6.000000    ( 0.0000,  0.0000,  0.0000)
   9 Au     0.000000    1.705661    8.412169    ( 0.0000,  0.0000,  0.0000)
  10 Au     2.954292    1.705661    8.412169    ( 0.0000,  0.0000,  0.0000)
  11 Au     5.908584    1.705661    8.412169    ( 0.0000,  0.0000,  0.0000)
  12 Au     1.477146    4.264153    8.412169    ( 0.0000,  0.0000,  0.0000)
  13 Au     4.431438    4.264153    8.412169    ( 0.0000,  0.0000,  0.0000)
  14 Au     7.385730    4.264153    8.412169    ( 0.0000,  0.0000,  0.0000)
  15 Au     2.954292    6.822645    8.412169    ( 0.0000,  0.0000,  0.0000)
  16 Au     5.908584    6.822645    8.412169    ( 0.0000,  0.0000,  0.0000)
  17 Au     8.862876    6.822645    8.412169    ( 0.0000,  0.0000,  0.0000)
  18 Au     0.000000    0.000000   10.824339    ( 0.0000,  0.0000,  0.0000)
  19 Au     2.954292    0.000000   10.824339    ( 0.0000,  0.0000,  0.0000)
  20 Au     5.908584    0.000000   10.824339    ( 0.0000,  0.0000,  0.0000)
  21 Au     1.477146    2.558492   10.824339    ( 0.0000,  0.0000,  0.0000)
  22 Au     4.431438    2.558492   10.824339    ( 0.0000,  0.0000,  0.0000)
  23 Au     7.385730    2.558492   10.824339    ( 0.0000,  0.0000,  0.0000)
  24 Au     2.954292    5.116984   10.824339    ( 0.0000,  0.0000,  0.0000)
  25 Au     5.908584    5.116984   10.824339    ( 0.0000,  0.0000,  0.0000)
  26 Au     8.862876    5.116984   10.824339    ( 0.0000,  0.0000,  0.0000)
  27 O      0.000000   -0.000000   14.440760    ( 0.0000,  0.0000,  0.0000)
  28 C     -0.000000    0.000000   12.918746    ( 0.0000,  0.0000,  0.0000)

Unit cell:
           periodic     x           y           z      points  spacing
  1. axis:    yes    8.862876    0.000000    0.000000    45     0.1706
  2. axis:    yes    4.431438    7.675476    0.000000    45     0.1706
  3. axis:    yes    0.000000    0.000000   16.824339    84     0.2003

  Lengths:   8.862876   8.862876  16.824339
  Angles:   90.000000  90.000000  60.000000

Effective grid spacing dv^(1/3) = 0.1888

     iter     time        total  log10-change:  magmom
                         energy  eigst   dens
iter:   1 14:46:01  -149.598752  -0.79           +0.0000
iter:   2 14:46:12  -107.346241  -1.51  -1.29    +0.0000
iter:   3 14:46:24   -90.587320  +0.03  -1.55    +0.0000
iter:   4 14:46:35   -91.270881  -0.38  -1.58    -0.0000
iter:   5 14:46:46   -90.970415  -1.65  -1.95    +0.0000
iter:   6 14:46:57   -90.225884  -2.34  -2.04    +0.0000
iter:   7 14:47:08   -90.861679  -1.95  -2.22    -0.0000
iter:   8 14:47:19   -90.844822  -3.13  -1.97    +0.0000
iter:   9 14:47:30   -90.119911  -2.77  -1.97    +0.0000
iter:  10 14:47:41   -89.863048  -2.90  -2.22    +0.0000
iter:  11 14:47:52   -89.816880  -3.51  -2.51    +0.0000
iter:  12 14:48:02   -89.786467c -3.64  -2.69    +0.0000
iter:  13 14:48:14   -89.779123c -4.14  -2.87    +0.0000
iter:  14 14:48:25   -89.779063c -4.24  -2.96    +0.0000
iter:  15 14:48:36   -89.776788c -4.98  -3.09    +0.0000
iter:  16 14:48:47   -89.774702c -4.68  -3.18    +0.0000
iter:  17 14:48:58   -89.774569c -5.39  -3.42    +0.0000
iter:  18 14:49:09   -89.774356c -5.98  -3.52    +0.0000
iter:  19 14:49:20   -89.774313c -6.18  -3.62    +0.0000
iter:  20 14:49:31   -89.774358c -5.80  -3.71    +0.0000
iter:  21 14:49:42   -89.774217c -6.03  -3.87    +0.0000
iter:  22 14:49:53   -89.774218c -6.60  -4.13c   +0.0000
iter:  23 14:50:04   -89.774255c -6.56  -4.17c   +0.0000
iter:  24 14:50:15   -89.774241c -7.12  -4.51c   +0.0000
iter:  25 14:50:26   -89.774237c -7.93c -4.55c   +0.0000

Converged after 25 iterations.

Dipole moment: (-0.115195, -0.066508, -0.526476) |e|*Ang

Total magnetic moment: (0.000000, 0.000000, 0.000000)
Local magnetic moments:
   0 Au ( 0.000000,  0.000000,  0.000000)
   1 Au ( 0.000000,  0.000000,  0.000000)
   2 Au ( 0.000000,  0.000000,  0.000000)
   3 Au ( 0.000000,  0.000000,  0.000000)
   4 Au ( 0.000000,  0.000000,  0.000000)
   5 Au ( 0.000000,  0.000000,  0.000000)
   6 Au ( 0.000000,  0.000000,  0.000000)
   7 Au ( 0.000000,  0.000000,  0.000000)
   8 Au ( 0.000000,  0.000000,  0.000000)
   9 Au ( 0.000000,  0.000000, -0.000000)
  10 Au ( 0.000000,  0.000000,  0.000000)
  11 Au ( 0.000000,  0.000000,  0.000000)
  12 Au ( 0.000000,  0.000000,  0.000000)
  13 Au ( 0.000000,  0.000000,  0.000000)
  14 Au ( 0.000000,  0.000000,  0.000000)
  15 Au ( 0.000000,  0.000000, -0.000000)
  16 Au ( 0.000000,  0.000000, -0.000000)
  17 Au ( 0.000000,  0.000000,  0.000000)
  18 Au ( 0.000000,  0.000000,  0.000000)
  19 Au ( 0.000000,  0.000000, -0.000000)
  20 Au ( 0.000000,  0.000000, -0.000000)
  21 Au ( 0.000000,  0.000000, -0.000000)
  22 Au ( 0.000000,  0.000000, -0.000000)
  23 Au ( 0.000000,  0.000000, -0.000000)
  24 Au ( 0.000000,  0.000000, -0.000000)
  25 Au ( 0.000000,  0.000000, -0.000000)
  26 Au ( 0.000000,  0.000000, -0.000000)
  27 O  ( 0.000000,  0.000000,  0.000000)
  28 C  ( 0.000000,  0.000000, -0.000000)

Energy contributions relative to reference atoms: (reference = -13951221.800367)

Kinetic:       -318.881469
Potential:     +254.704221
External:        +0.000000
XC:             -28.480004
Entropy (-ST):   -0.318351
Local:           +3.042190
--------------------------
Free energy:    -89.933413
Extrapolated:   -89.774237

Spin contamination: 0.000000 electrons
Showing only first 2 kpts
                      Up                     Down
 Kpt  Band  Eigenvalues  Occupancy  Eigenvalues  Occupancy
  0   151     -0.35810    0.99999     -0.35810    0.99999
  0   152     -0.00814    0.99980     -0.00814    0.99980
  0   153      0.33486    0.99388      0.33486    0.99388
  0   154      0.37671    0.99072      0.37671    0.99072

  1   151     -0.42833    1.00000     -0.42833    1.00000
  1   152     -0.37341    0.99999     -0.37341    0.99999
  1   153     -0.20655    0.99997     -0.20655    0.99997
  1   154      0.13490    0.99917      0.13490    0.99917


Fermi level: 0.84380

No gap

Forces in eV/Ang:
  0 Au    0.00253    0.00146   -0.06498
  1 Au   -0.00000    0.01116   -0.02595
  2 Au   -0.00253    0.00146   -0.06498
  3 Au    0.00966   -0.00558   -0.02595
  4 Au   -0.00966   -0.00558   -0.02595
  5 Au   -0.00000    0.02618   -0.02174
  6 Au   -0.00000   -0.00292   -0.06498
  7 Au    0.02268   -0.01309   -0.02174
  8 Au   -0.02268   -0.01309   -0.02174
  9 Au    0.00000   -0.08091    0.08513
 10 Au    0.02018    0.01165    0.01716
 11 Au   -0.02018    0.01165    0.01716
 12 Au   -0.01296    0.00748   -0.00601
 13 Au    0.00000   -0.02330    0.01716
 14 Au    0.01296    0.00748   -0.00601
 15 Au    0.07007    0.04046    0.08513
 16 Au   -0.07007    0.04046    0.08513
 17 Au    0.00000   -0.01496   -0.00601
 18 Au    0.00000    0.00000    0.79510
 19 Au    0.23459    0.01206   -0.01318
 20 Au   -0.23459    0.01206   -0.01318
 21 Au    0.12774    0.19713   -0.01318
 22 Au   -0.00000    0.00000    0.03010
 23 Au   -0.12774    0.19713   -0.01318
 24 Au   -0.10684   -0.20919   -0.01318
 25 Au    0.10684   -0.20919   -0.01318
 26 Au    0.00000    0.00000    0.01247
 27 O    -0.00000    0.00000  -11.27984
 28 C     0.00000    0.00000   10.54817

System changes: positions 

Initializing position-dependent things.

Density initialized from wave functions
                                              
                                              
                                              
                                              
                                              
                                              
                                              
                                              
       O                                      
                  Au     Au     Au            
       C                                      
            Au     AAu    AAu    Au           
       Au     Au      Au                      
              Au     Au     Au                
        Au     Au     AAu    Au     Au        
                                              
                 Au     Au     Au             
                                              
           Au      Au     Au                  
                                              
                                              
                                              
                                              

Positions:
   0 Au     1.477146    0.852831    6.000000    ( 0.0000,  0.0000,  0.0000)
   1 Au     4.431438    0.852831    6.000000    ( 0.0000,  0.0000,  0.0000)
   2 Au     7.385730    0.852831    6.000000    ( 0.0000,  0.0000,  0.0000)
   3 Au     2.954292    3.411323    6.000000    ( 0.0000,  0.0000,  0.0000)
   4 Au     5.908584    3.411323    6.000000    ( 0.0000,  0.0000,  0.0000)
   5 Au     8.862876    3.411323    6.000000    ( 0.0000,  0.0000,  0.0000)
   6 Au     4.431438    5.969815    6.000000    ( 0.0000,  0.0000,  0.0000)
   7 Au     7.385730    5.969815    6.000000    ( 0.0000,  0.0000,  0.0000)
   8 Au    10.340022    5.969815    6.000000    ( 0.0000,  0.0000,  0.0000)
   9 Au     0.000000    1.705661    8.412169    ( 0.0000,  0.0000,  0.0000)
  10 Au     2.954292    1.705661    8.412169    ( 0.0000,  0.0000,  0.0000)
  11 Au     5.908584    1.705661    8.412169    ( 0.0000,  0.0000,  0.0000)
  12 Au     1.477146    4.264153    8.412169    ( 0.0000,  0.0000,  0.0000)
  13 Au     4.431438    4.264153    8.412169    ( 0.0000,  0.0000,  0.0000)
  14 Au     7.385730    4.264153    8.412169    ( 0.0000,  0.0000,  0.0000)
  15 Au     2.954292    6.822645    8.412169    ( 0.0000,  0.0000,  0.0000)
  16 Au     5.908584    6.822645    8.412169    ( 0.0000,  0.0000,  0.0000)
  17 Au     8.862876    6.822645    8.412169    ( 0.0000,  0.0000,  0.0000)
  18 Au     0.000000    0.000000   10.824339    ( 0.0000,  0.0000,  0.0000)
  19 Au     2.954292    0.000000   10.824339    ( 0.0000,  0.0000,  0.0000)
  20 Au     5.908584    0.000000   10.824339    ( 0.0000,  0.0000,  0.0000)
  21 Au     1.477146    2.558492   10.824339    ( 0.0000,  0.0000,  0.0000)
  22 Au     4.431438    2.558492   10.824339    ( 0.0000,  0.0000,  0.0000)
  23 Au     7.385730    2.558492   10.824339    ( 0.0000,  0.0000,  0.0000)
  24 Au     2.954292    5.116984   10.824339    ( 0.0000,  0.0000,  0.0000)
  25 Au     5.908584    5.116984   10.824339    ( 0.0000,  0.0000,  0.0000)
  26 Au     8.862876    5.116984   10.824339    ( 0.0000,  0.0000,  0.0000)
  27 O      0.000000   -0.000000   14.203588    ( 0.0000,  0.0000,  0.0000)
  28 C     -0.000000    0.000000   12.966965    ( 0.0000,  0.0000,  0.0000)

Unit cell:
           periodic     x           y           z      points  spacing
  1. axis:    yes    8.862876    0.000000    0.000000    45     0.1706
  2. axis:    yes    4.431438    7.675476    0.000000    45     0.1706
  3. axis:    yes    0.000000    0.000000   16.824339    84     0.2003

  Lengths:   8.862876   8.862876  16.824339
  Angles:   90.000000  90.000000  60.000000

Effective grid spacing dv^(1/3) = 0.1888

     iter     time        total  log10-change:  magmom
                         energy  eigst   dens
iter:   1 14:50:41  -103.375545  -1.45           +0.0000
iter:   2 14:50:52   -94.297041  -1.80  -1.47    +0.0000
iter:   3 14:51:03   -93.736411  -2.68  -2.18    +0.0000
iter:   4 14:51:14   -93.333108  -2.88  -2.35    +0.0000
iter:   5 14:51:25   -92.948357  -2.93  -2.42    +0.0000
iter:   6 14:51:36   -92.843641  -2.93  -2.51    +0.0000
iter:   7 14:51:47   -92.819531c -3.31  -2.65    +0.0000
iter:   8 14:51:58   -92.800719c -3.44  -2.80    +0.0000
iter:   9 14:52:09   -92.790737c -3.99  -2.90    +0.0000
iter:  10 14:52:20   -92.789450c -4.73  -3.13    +0.0000
iter:  11 14:52:31   -92.788565c -4.89  -3.23    +0.0000
iter:  12 14:52:42   -92.788501c -5.14  -3.41    -0.0000
iter:  13 14:52:53   -92.788665c -5.29  -3.51    +0.0000
iter:  14 14:53:04   -92.788833c -5.55  -3.64    +0.0000
iter:  15 14:53:15   -92.788774c -6.49  -3.69    +0.0000
iter:  16 14:53:26   -92.788555c -5.68  -3.73    +0.0000
iter:  17 14:53:37   -92.788524c -6.10  -4.06c   -0.0000
iter:  18 14:53:48   -92.788530c -6.43  -4.19c   +0.0000
iter:  19 14:53:59   -92.788542c -7.08  -4.25c   -0.0000
iter:  20 14:54:10   -92.788560c -6.59  -4.28c   -0.0000
iter:  21 14:54:21   -92.788563c -7.95c -4.74c   -0.0000

Converged after 21 iterations.

Dipole moment: (-0.113732, -0.065663, 0.104997) |e|*Ang

Total magnetic moment: (0.000000, 0.000000, -0.000000)
Local magnetic moments:
   0 Au ( 0.000000,  0.000000,  0.000000)
   1 Au ( 0.000000,  0.000000,  0.000000)
   2 Au ( 0.000000,  0.000000,  0.000000)
   3 Au ( 0.000000,  0.000000,  0.000000)
   4 Au ( 0.000000,  0.000000,  0.000000)
   5 Au ( 0.000000,  0.000000, -0.000000)
   6 Au ( 0.000000,  0.000000,  0.000000)
   7 Au ( 0.000000,  0.000000, -0.000000)
   8 Au ( 0.000000,  0.000000, -0.000000)
   9 Au ( 0.000000,  0.000000,  0.000000)
  10 Au ( 0.000000,  0.000000, -0.000000)
  11 Au ( 0.000000,  0.000000, -0.000000)
  12 Au ( 0.000000,  0.000000,  0.000000)
  13 Au ( 0.000000,  0.000000, -0.000000)
  14 Au ( 0.000000,  0.000000,  0.000000)
  15 Au ( 0.000000,  0.000000,  0.000000)
  16 Au ( 0.000000,  0.000000,  0.000000)
  17 Au ( 0.000000,  0.000000,  0.000000)
  18 Au ( 0.000000,  0.000000, -0.000000)
  19 Au ( 0.000000,  0.000000, -0.000000)
  20 Au ( 0.000000,  0.000000, -0.000000)
  21 Au ( 0.000000,  0.000000, -0.000000)
  22 Au ( 0.000000,  0.000000,  0.000000)
  23 Au ( 0.000000,  0.000000, -0.000000)
  24 Au ( 0.000000,  0.000000, -0.000000)
  25 Au ( 0.000000,  0.000000, -0.000000)
  26 Au ( 0.000000,  0.000000,  0.000000)
  27 O  ( 0.000000,  0.000000, -0.000000)
  28 C  ( 0.000000,  0.000000, -0.000000)

Energy contributions relative to reference atoms: (reference = -13951221.800367)

Kinetic:       -305.559568
Potential:     +242.492118
External:        +0.000000
XC:             -32.609265
Entropy (-ST):   -0.307324
Local:           +3.041814
--------------------------
Free energy:    -92.942225
Extrapolated:   -92.788563

Spin contamination: 0.000000 electrons
Showing only first 2 kpts
                      Up                     Down
 Kpt  Band  Eigenvalues  Occupancy  Eigenvalues  Occupancy
  0   151     -0.18512    1.00000     -0.18512    1.00000
  0   152      0.15382    0.99986      0.15382    0.99986
  0   153      0.51913    0.99479      0.51913    0.99479
  0   154      0.56414    0.99185      0.56414    0.99185

  1   151     -0.25677    1.00000     -0.25677    1.00000
  1   152     -0.19380    1.00000     -0.19380    1.00000
  1   153     -0.02856    0.99998     -0.02856    0.99998
  1   154      0.29040    0.99947      0.29040    0.99947


Fermi level: 1.04424

No gap

Forces in eV/Ang:
  0 Au    0.00306    0.00177   -0.06838
  1 Au   -0.00000    0.01344   -0.02963
  2 Au   -0.00306    0.00177   -0.06838
  3 Au    0.01164   -0.00672   -0.02963
  4 Au   -0.01164   -0.00672   -0.02963
  5 Au   -0.00000    0.02668   -0.02858
  6 Au   -0.00000   -0.00354   -0.06838
  7 Au    0.02311   -0.01334   -0.02858
  8 Au   -0.02311   -0.01334   -0.02858
  9 Au   -0.00000   -0.08031    0.09648
 10 Au    0.02270    0.01311    0.01160
 11 Au   -0.02270    0.01311    0.01160
 12 Au   -0.01839    0.01062   -0.01990
 13 Au    0.00000   -0.02621    0.01160
 14 Au    0.01839    0.01062   -0.01990
 15 Au    0.06955    0.04016    0.09648
 16 Au   -0.06955    0.04016    0.09648
 17 Au   -0.00000   -0.02124   -0.01990
 18 Au   -0.00000    0.00000    0.61738
 19 Au    0.23342    0.01395   -0.02288
 20 Au   -0.23342    0.01395   -0.02288
 21 Au    0.12879    0.19518   -0.02288
 22 Au   -0.00000    0.00000    0.04569
 23 Au   -0.12879    0.19518   -0.02288
 24 Au   -0.10463   -0.20912   -0.02288
 25 Au    0.10463   -0.20912   -0.02288
 26 Au   -0.00000    0.00000    0.02503
 27 O     0.00000    0.00000   -7.26726
 28 C     0.00000    0.00000    6.82937

System changes: positions 

Initializing position-dependent things.

Density initialized from wave functions
                                              
                                              
                                              
                                              
                                              
                                              
                                              
                                              
       O                                      
                  Au     Au     Au            
       C                                      
            Au     AAu    AAu    Au           
       Au     Au     AAu    Au                
                                              
        Au     Au     AAu    Au     Au        
                                              
                 Au     Au     Au             
                                              
           Au      Au     Au                  
                                              
                                              
                                              
                                              

Positions:
   0 Au     1.477146    0.852831    6.000000    ( 0.0000,  0.0000,  0.0000)
   1 Au     4.431438    0.852831    6.000000    ( 0.0000,  0.0000,  0.0000)
   2 Au     7.385730    0.852831    6.000000    ( 0.0000,  0.0000,  0.0000)
   3 Au     2.954292    3.411323    6.000000    ( 0.0000,  0.0000,  0.0000)
   4 Au     5.908584    3.411323    6.000000    ( 0.0000,  0.0000,  0.0000)
   5 Au     8.862876    3.411323    6.000000    ( 0.0000,  0.0000,  0.0000)
   6 Au     4.431438    5.969815    6.000000    ( 0.0000,  0.0000,  0.0000)
   7 Au     7.385730    5.969815    6.000000    ( 0.0000,  0.0000,  0.0000)
   8 Au    10.340022    5.969815    6.000000    ( 0.0000,  0.0000,  0.0000)
   9 Au     0.000000    1.705661    8.412169    ( 0.0000,  0.0000,  0.0000)
  10 Au     2.954292    1.705661    8.412169    ( 0.0000,  0.0000,  0.0000)
  11 Au     5.908584    1.705661    8.412169    ( 0.0000,  0.0000,  0.0000)
  12 Au     1.477146    4.264153    8.412169    ( 0.0000,  0.0000,  0.0000)
  13 Au     4.431438    4.264153    8.412169    ( 0.0000,  0.0000,  0.0000)
  14 Au     7.385730    4.264153    8.412169    ( 0.0000,  0.0000,  0.0000)
  15 Au     2.954292    6.822645    8.412169    ( 0.0000,  0.0000,  0.0000)
  16 Au     5.908584    6.822645    8.412169    ( 0.0000,  0.0000,  0.0000)
  17 Au     8.862876    6.822645    8.412169    ( 0.0000,  0.0000,  0.0000)
  18 Au     0.000000    0.000000   10.824339    ( 0.0000,  0.0000,  0.0000)
  19 Au     2.954292    0.000000   10.824339    ( 0.0000,  0.0000,  0.0000)
  20 Au     5.908584    0.000000   10.824339    ( 0.0000,  0.0000,  0.0000)
  21 Au     1.477146    2.558492   10.824339    ( 0.0000,  0.0000,  0.0000)
  22 Au     4.431438    2.558492   10.824339    ( 0.0000,  0.0000,  0.0000)
  23 Au     7.385730    2.558492   10.824339    ( 0.0000,  0.0000,  0.0000)
  24 Au     2.954292    5.116984   10.824339    ( 0.0000,  0.0000,  0.0000)
  25 Au     5.908584    5.116984   10.824339    ( 0.0000,  0.0000,  0.0000)
  26 Au     8.862876    5.116984   10.824339    ( 0.0000,  0.0000,  0.0000)
  27 O      0.000000   -0.000000   14.055777    ( 0.0000,  0.0000,  0.0000)
  28 C     -0.000000    0.000000   12.911351    ( 0.0000,  0.0000,  0.0000)

Unit cell:
           periodic     x           y           z      points  spacing
  1. axis:    yes    8.862876    0.000000    0.000000    45     0.1706
  2. axis:    yes    4.431438    7.675476    0.000000    45     0.1706
  3. axis:    yes    0.000000    0.000000   16.824339    84     0.2003

  Lengths:   8.862876   8.862876  16.824339
  Angles:   90.000000  90.000000  60.000000

Effective grid spacing dv^(1/3) = 0.1888

     iter     time        total  log10-change:  magmom
                         energy  eigst   dens
iter:   1 14:54:36   -95.821377  -1.75           -0.0000
iter:   2 14:54:47   -94.495987  -2.74  -1.92    +0.0000
iter:   3 14:54:58   -93.557346  -2.26  -2.17    +0.0000
iter:   4 14:55:09   -93.295583  -2.78  -2.34    +0.0000
iter:   5 14:55:20   -93.208141  -3.23  -2.44    -0.0000
iter:   6 14:55:31   -93.201214c -3.47  -2.76    -0.0000
iter:   7 14:55:42   -93.174623c -3.53  -2.79    -0.0000
iter:   8 14:55:53   -93.173415c -5.04  -3.13    -0.0000
iter:   9 14:56:04   -93.171269c -4.32  -3.23    -0.0000
iter:  10 14:56:15   -93.170567c -4.99  -3.43    -0.0000
iter:  11 14:56:26   -93.170415c -5.71  -3.54    -0.0000
iter:  12 14:56:37   -93.170434c -5.96  -3.77    -0.0000
iter:  13 14:56:48   -93.170411c -6.53  -3.93    -0.0000
iter:  14 14:56:59   -93.170410c -6.22  -3.98    -0.0000
iter:  15 14:57:10   -93.170415c -6.66  -4.07c   -0.0000
iter:  16 14:57:21   -93.170420c -7.13  -4.26c   -0.0000
iter:  17 14:57:32   -93.170435c -6.82  -4.43c   -0.0000
iter:  18 14:57:43   -93.170431c -7.39  -4.61c   -0.0000
iter:  19 14:57:54   -93.170431c -8.27c -4.88c   -0.0000

Converged after 19 iterations.

Dipole moment: (-0.111501, -0.064375, 0.275685) |e|*Ang

Total magnetic moment: (0.000000, 0.000000, -0.000000)
Local magnetic moments:
   0 Au ( 0.000000,  0.000000,  0.000000)
   1 Au ( 0.000000,  0.000000, -0.000000)
   2 Au ( 0.000000,  0.000000,  0.000000)
   3 Au ( 0.000000,  0.000000, -0.000000)
   4 Au ( 0.000000,  0.000000, -0.000000)
   5 Au ( 0.000000,  0.000000,  0.000000)
   6 Au ( 0.000000,  0.000000,  0.000000)
   7 Au ( 0.000000,  0.000000,  0.000000)
   8 Au ( 0.000000,  0.000000,  0.000000)
   9 Au ( 0.000000,  0.000000,  0.000000)
  10 Au ( 0.000000,  0.000000,  0.000000)
  11 Au ( 0.000000,  0.000000,  0.000000)
  12 Au ( 0.000000,  0.000000, -0.000000)
  13 Au ( 0.000000,  0.000000,  0.000000)
  14 Au ( 0.000000,  0.000000, -0.000000)
  15 Au ( 0.000000,  0.000000,  0.000000)
  16 Au ( 0.000000,  0.000000,  0.000000)
  17 Au ( 0.000000,  0.000000, -0.000000)
  18 Au ( 0.000000,  0.000000, -0.000000)
  19 Au ( 0.000000,  0.000000, -0.000000)
  20 Au ( 0.000000,  0.000000, -0.000000)
  21 Au ( 0.000000,  0.000000, -0.000000)
  22 Au ( 0.000000,  0.000000,  0.000000)
  23 Au ( 0.000000,  0.000000, -0.000000)
  24 Au ( 0.000000,  0.000000, -0.000000)
  25 Au ( 0.000000,  0.000000, -0.000000)
  26 Au ( 0.000000,  0.000000,  0.000000)
  27 O  ( 0.000000,  0.000000,  0.000000)
  28 C  ( 0.000000,  0.000000,  0.000000)

Energy contributions relative to reference atoms: (reference = -13951221.800367)

Kinetic:       -294.789905
Potential:     +233.721858
External:        +0.000000
XC:             -34.990056
Entropy (-ST):   -0.305501
Local:           +3.040422
--------------------------
Free energy:    -93.323181
Extrapolated:   -93.170431

Spin contamination: 0.000000 electrons
Showing only first 2 kpts
                      Up                     Down
 Kpt  Band  Eigenvalues  Occupancy  Eigenvalues  Occupancy
  0   151     -0.13712    1.00000     -0.13712    1.00000
  0   152      0.22250    0.99985      0.22250    0.99985
  0   153      0.57107    0.99501      0.57107    0.99501
  0   154      0.63200    0.99086      0.63200    0.99086

  1   151     -0.20915    1.00000     -0.20915    1.00000
  1   152     -0.14456    1.00000     -0.14456    1.00000
  1   153      0.02303    0.99998      0.02303    0.99998
  1   154      0.38286    0.99924      0.38286    0.99924


Fermi level: 1.10064

No gap

Forces in eV/Ang:
  0 Au    0.00397    0.00229   -0.07328
  1 Au    0.00000    0.01556   -0.02981
  2 Au   -0.00397    0.00229   -0.07328
  3 Au    0.01347   -0.00778   -0.02981
  4 Au   -0.01347   -0.00778   -0.02981
  5 Au    0.00000    0.02871   -0.03101
  6 Au    0.00000   -0.00458   -0.07328
  7 Au    0.02486   -0.01435   -0.03101
  8 Au   -0.02486   -0.01435   -0.03101
  9 Au   -0.00000   -0.09130    0.09923
 10 Au    0.02323    0.01341    0.01190
 11 Au   -0.02323    0.01341    0.01190
 12 Au   -0.02090    0.01207   -0.02219
 13 Au    0.00000   -0.02683    0.01190
 14 Au    0.02090    0.01207   -0.02219
 15 Au    0.07907    0.04565    0.09923
 16 Au   -0.07907    0.04565    0.09923
 17 Au    0.00000   -0.02413   -0.02219
 18 Au    0.00000    0.00000    0.28071
 19 Au    0.25564    0.01595   -0.02888
 20 Au   -0.25564    0.01595   -0.02888
 21 Au    0.14163    0.21341   -0.02888
 22 Au   -0.00000    0.00000    0.04937
 23 Au   -0.14163    0.21341   -0.02888
 24 Au   -0.11400   -0.22936   -0.02888
 25 Au    0.11400   -0.22936   -0.02888
 26 Au   -0.00000    0.00000    0.02562
 27 O     0.00000    0.00000    0.03164
 28 C    -0.00000    0.00000   -0.15072

System changes: positions 

Initializing position-dependent things.

Density initialized from wave functions
                                              
                                              
                                              
                                              
                                              
                                              
                                              
                                              
       O                                      
                  Au     Au     Au            
       C                                      
            Au     AAu    AAu    Au           
       Au     Au     AAu    Au                
                                              
        Au     Au     AAu    Au     Au        
                                              
                 Au     Au     Au             
                                              
           Au      Au     Au                  
                                              
                                              
                                              
                                              

Positions:
   0 Au     1.477146    0.852831    6.000000    ( 0.0000,  0.0000,  0.0000)
   1 Au     4.431438    0.852831    6.000000    ( 0.0000,  0.0000,  0.0000)
   2 Au     7.385730    0.852831    6.000000    ( 0.0000,  0.0000,  0.0000)
   3 Au     2.954292    3.411323    6.000000    ( 0.0000,  0.0000,  0.0000)
   4 Au     5.908584    3.411323    6.000000    ( 0.0000,  0.0000,  0.0000)
   5 Au     8.862876    3.411323    6.000000    ( 0.0000,  0.0000,  0.0000)
   6 Au     4.431438    5.969815    6.000000    ( 0.0000,  0.0000,  0.0000)
   7 Au     7.385730    5.969815    6.000000    ( 0.0000,  0.0000,  0.0000)
   8 Au    10.340022    5.969815    6.000000    ( 0.0000,  0.0000,  0.0000)
   9 Au     0.000000    1.705661    8.412169    ( 0.0000,  0.0000,  0.0000)
  10 Au     2.954292    1.705661    8.412169    ( 0.0000,  0.0000,  0.0000)
  11 Au     5.908584    1.705661    8.412169    ( 0.0000,  0.0000,  0.0000)
  12 Au     1.477146    4.264153    8.412169    ( 0.0000,  0.0000,  0.0000)
  13 Au     4.431438    4.264153    8.412169    ( 0.0000,  0.0000,  0.0000)
  14 Au     7.385730    4.264153    8.412169    ( 0.0000,  0.0000,  0.0000)
  15 Au     2.954292    6.822645    8.412169    ( 0.0000,  0.0000,  0.0000)
  16 Au     5.908584    6.822645    8.412169    ( 0.0000,  0.0000,  0.0000)
  17 Au     8.862876    6.822645    8.412169    ( 0.0000,  0.0000,  0.0000)
  18 Au     0.000000    0.000000   10.824339    ( 0.0000,  0.0000,  0.0000)
  19 Au     2.954292    0.000000   10.824339    ( 0.0000,  0.0000,  0.0000)
  20 Au     5.908584    0.000000   10.824339    ( 0.0000,  0.0000,  0.0000)
  21 Au     1.477146    2.558492   10.824339    ( 0.0000,  0.0000,  0.0000)
  22 Au     4.431438    2.558492   10.824339    ( 0.0000,  0.0000,  0.0000)
  23 Au     7.385730    2.558492   10.824339    ( 0.0000,  0.0000,  0.0000)
  24 Au     2.954292    5.116984   10.824339    ( 0.0000,  0.0000,  0.0000)
  25 Au     5.908584    5.116984   10.824339    ( 0.0000,  0.0000,  0.0000)
  26 Au     8.862876    5.116984   10.824339    ( 0.0000,  0.0000,  0.0000)
  27 O     -0.000000   -0.000000   14.053655    ( 0.0000,  0.0000,  0.0000)
  28 C      0.000000    0.000000   12.908925    ( 0.0000,  0.0000,  0.0000)

Unit cell:
           periodic     x           y           z      points  spacing
  1. axis:    yes    8.862876    0.000000    0.000000    45     0.1706
  2. axis:    yes    4.431438    7.675476    0.000000    45     0.1706
  3. axis:    yes    0.000000    0.000000   16.824339    84     0.2003

  Lengths:   8.862876   8.862876  16.824339
  Angles:   90.000000  90.000000  60.000000

Effective grid spacing dv^(1/3) = 0.1888

     iter     time        total  log10-change:  magmom
                         energy  eigst   dens
iter:   1 14:58:10   -93.170712  -5.16           -0.0000
iter:   2 14:58:21   -93.170692  -6.43  -4.21c   -0.0000
iter:   3 14:58:31   -93.170672c -6.90  -4.45c   +0.0000
iter:   4 14:58:42   -93.170653c -6.90  -4.63c   +0.0000
iter:   5 14:58:53   -93.170663c -7.35  -4.70c   +0.0000
iter:   6 14:59:04   -93.170671c -7.76c -4.93c   +0.0000

Converged after 6 iterations.

Dipole moment: (-0.111297, -0.064257, 0.274669) |e|*Ang

Total magnetic moment: (0.000000, 0.000000, 0.000000)
Local magnetic moments:
   0 Au ( 0.000000,  0.000000,  0.000000)
   1 Au ( 0.000000,  0.000000, -0.000000)
   2 Au ( 0.000000,  0.000000,  0.000000)
   3 Au ( 0.000000,  0.000000, -0.000000)
   4 Au ( 0.000000,  0.000000, -0.000000)
   5 Au ( 0.000000,  0.000000, -0.000000)
   6 Au ( 0.000000,  0.000000,  0.000000)
   7 Au ( 0.000000,  0.000000, -0.000000)
   8 Au ( 0.000000,  0.000000, -0.000000)
   9 Au ( 0.000000,  0.000000, -0.000000)
  10 Au ( 0.000000,  0.000000,  0.000000)
  11 Au ( 0.000000,  0.000000,  0.000000)
  12 Au ( 0.000000,  0.000000,  0.000000)
  13 Au ( 0.000000,  0.000000,  0.000000)
  14 Au ( 0.000000,  0.000000,  0.000000)
  15 Au ( 0.000000,  0.000000, -0.000000)
  16 Au ( 0.000000,  0.000000, -0.000000)
  17 Au ( 0.000000,  0.000000,  0.000000)
  18 Au ( 0.000000,  0.000000,  0.000000)
  19 Au ( 0.000000,  0.000000,  0.000000)
  20 Au ( 0.000000,  0.000000,  0.000000)
  21 Au ( 0.000000,  0.000000,  0.000000)
  22 Au ( 0.000000,  0.000000, -0.000000)
  23 Au ( 0.000000,  0.000000,  0.000000)
  24 Au ( 0.000000,  0.000000,  0.000000)
  25 Au ( 0.000000,  0.000000,  0.000000)
  26 Au ( 0.000000,  0.000000, -0.000000)
  27 O  ( 0.000000,  0.000000, -0.000000)
  28 C  ( 0.000000,  0.000000, -0.000000)

Energy contributions relative to reference atoms: (reference = -13951221.800367)

Kinetic:       -294.925840
Potential:     +233.849368
External:        +0.000000
XC:             -34.982081
Entropy (-ST):   -0.305529
Local:           +3.040646
--------------------------
Free energy:    -93.323436
Extrapolated:   -93.170671

Spin contamination: 0.000000 electrons
Showing only first 2 kpts
                      Up                     Down
 Kpt  Band  Eigenvalues  Occupancy  Eigenvalues  Occupancy
  0   151     -0.13735    1.00000     -0.13735    1.00000
  0   152      0.22281    0.99985      0.22281    0.99985
  0   153      0.57082    0.99501      0.57082    0.99501
  0   154      0.63205    0.99083      0.63205    0.99083

  1   151     -0.20947    1.00000     -0.20947    1.00000
  1   152     -0.14493    1.00000     -0.14493    1.00000
  1   153      0.02282    0.99998      0.02282    0.99998
  1   154      0.38389    0.99923      0.38389    0.99923


Fermi level: 1.10027

No gap

Forces in eV/Ang:
  0 Au    0.00388    0.00224   -0.07449
  1 Au    0.00000    0.01551   -0.03144
  2 Au   -0.00388    0.00224   -0.07449
  3 Au    0.01343   -0.00776   -0.03144
  4 Au   -0.01343   -0.00776   -0.03144
  5 Au   -0.00000    0.02882   -0.03282
  6 Au    0.00000   -0.00448   -0.07449
  7 Au    0.02496   -0.01441   -0.03282
  8 Au   -0.02496   -0.01441   -0.03282
  9 Au    0.00000   -0.09191    0.09955
 10 Au    0.02318    0.01338    0.01281
 11 Au   -0.02318    0.01338    0.01281
 12 Au   -0.02081    0.01201   -0.02135
 13 Au    0.00000   -0.02677    0.01281
 14 Au    0.02081    0.01201   -0.02135
 15 Au    0.07959    0.04595    0.09955
 16 Au   -0.07959    0.04595    0.09955
 17 Au    0.00000   -0.02403   -0.02135
 18 Au    0.00000    0.00000    0.27384
 19 Au    0.25643    0.01599   -0.02822
 20 Au   -0.25643    0.01599   -0.02822
 21 Au    0.14206    0.21409   -0.02822
 22 Au    0.00000    0.00000    0.05035
 23 Au   -0.14206    0.21409   -0.02822
 24 Au   -0.11437   -0.23007   -0.02822
 25 Au    0.11437   -0.23007   -0.02822
 26 Au    0.00000    0.00000    0.02633
 27 O     0.00000    0.00000    0.01749
 28 C     0.00000    0.00000   -0.09896

Timing:                                      incl.     excl.
-------------------------------------------------------------------
Density initialized from wave functions:     7.021     6.003   0.3% |
 Symmetrize density:                         1.019     1.019   0.1% |
Forces:                                     18.406    18.406   0.9% |
Hamiltonian:                                 5.428     0.035   0.0% |
 Atomic:                                     2.729     1.371   0.1% |
  XC Correction:                             1.358     1.358   0.1% |
 Calculate atomic Hamiltonians:              0.772     0.772   0.0% |
 Communicate:                                0.024     0.024   0.0% |
 Initialize Hamiltonian:                     0.000     0.000   0.0% |
 Poisson:                                    0.007     0.007   0.0% |
 XC 3D grid:                                 1.860     1.860   0.1% |
LCAO initialization:                        17.354     0.257   0.0% |
 LCAO eigensolver:                           2.137     0.001   0.0% |
  Calculate projections:                     0.006     0.006   0.0% |
  DenseAtomicCorrection:                     0.009     0.009   0.0% |
  Distribute overlap matrix:                 0.356     0.356   0.0% |
  Orbital Layouts:                           0.211     0.211   0.0% |
  Potential matrix:                          1.529     1.529   0.1% |
  Sum over cells:                            0.026     0.026   0.0% |
 LCAO to grid:                              14.717    14.717   0.7% |
 Set positions (LCAO WFS):                   0.243     0.091   0.0% |
  Basic WFS set positions:                   0.004     0.004   0.0% |
  Basis functions set positions:             0.000     0.000   0.0% |
  P tci:                                     0.089     0.089   0.0% |
  ST tci:                                    0.030     0.030   0.0% |
  mktci:                                     0.028     0.028   0.0% |
PWDescriptor:                                0.033     0.033   0.0% |
Redistribute:                                0.022     0.022   0.0% |
SCF-cycle:                                1969.847    16.778   0.8% |
 Davidson:                                1693.551   321.621  15.8% |-----|
  Apply H:                                 188.791   183.925   9.0% |---|
   HMM T:                                    4.866     4.866   0.2% |
  Subspace diag:                           284.427     0.153   0.0% |
   calc_h_matrix:                          219.612    31.123   1.5% ||
    Apply H:                               188.489   183.593   9.0% |---|
     HMM T:                                  4.896     4.896   0.2% |
   diagonalize:                             16.212    16.212   0.8% |
   rotate_psi:                              48.450    48.450   2.4% ||
  calc. matrices:                          569.541   191.553   9.4% |---|
   Apply H:                                377.989   368.195  18.1% |------|
    HMM T:                                   9.793     9.793   0.5% |
  diagonalize:                             234.697   234.697  11.5% |----|
  rotate_psi:                               94.474    94.474   4.6% |-|
 Density:                                  149.919     0.005   0.0% |
  Atomic density matrices:                   1.481     1.481   0.1% |
  Mix:                                      25.113    25.113   1.2% |
  Multipole moments:                         0.037     0.037   0.0% |
  Pseudo density:                          123.283   101.483   5.0% |-|
   Symmetrize density:                      21.800    21.800   1.1% |
 Hamiltonian:                              103.641     0.638   0.0% |
  Atomic:                                   52.171    26.135   1.3% ||
   XC Correction:                           26.036    26.036   1.3% ||
  Calculate atomic Hamiltonians:            14.489    14.489   0.7% |
  Communicate:                               0.403     0.403   0.0% |
  Poisson:                                   0.180     0.180   0.0% |
  XC 3D grid:                               35.760    35.760   1.8% ||
 Orthonormalize:                             5.959     0.010   0.0% |
  calc_s_matrix:                             0.730     0.730   0.0% |
  inverse-cholesky:                          0.312     0.312   0.0% |
  projections:                               3.606     3.606   0.2% |
  rotate_psi_s:                              1.301     1.301   0.1% |
Set symmetry:                                0.003     0.003   0.0% |
Other:                                      17.255    17.255   0.8% |
-------------------------------------------------------------------
Total:                                              2035.370 100.0%

Memory usage: 608.42 MiB
Date: Fri Feb 24 14:59:08 2023
