
  ___ ___ ___ _ _ _  
 |   |   |_  | | | | 
 | | | | | . | | | | 
 |__ |  _|___|_____|  22.8.0
 |___|_|             

User:   nicog@vera13-3
Date:   Fri Feb 24 13:26:06 2023
Arch:   x86_64
Pid:    2953712
CWD:    /cephyr/users/nicog/Vera/Computational_Materials_2023/A4
Python: 3.10.4
gpaw:   /apps/Arch/software/GPAW/22.8.0-foss-2022a/lib/python3.10/site-packages/gpaw
_gpaw:  /apps/Arch/software/GPAW/22.8.0-foss-2022a/lib/python3.10/site-packages/
        _gpaw.cpython-310-x86_64-linux-gnu.so
ase:    /apps/Arch/software/ASE/3.22.1-foss-2022a/lib/python3.10/site-packages/ase (version 3.22.1)
numpy:  /apps/Arch/software/SciPy-bundle/2022.05-foss-2022a/lib/python3.10/site-packages/numpy (version 1.22.3)
scipy:  /apps/Arch/software/SciPy-bundle/2022.05-foss-2022a/lib/python3.10/site-packages/scipy (version 1.8.1)
libxc:  5.2.3
units:  Angstrom and eV
cores: 16
OpenMP: False
OMP_NUM_THREADS: 1

Input parameters:
  kpts: [4 4 1]
  mode: {ecut: 450.00000000000006,
         name: pw}
  spinpol: True
  xc: PBE

System changes: positions, numbers, cell, pbc, initial_charges, initial_magmoms 

Initialize ...

species:
  Au:
    name: Gold
    id: b12133f335f6ca0d89c4b1ccaa844e9a
    Z: 79.0
    valence: 11
    core: 68
    charge: 0.0
    file: /apps/Common/software/GPAW-setups/0.9.20000/Au.PBE.gz
    compensation charges: {type: gauss,
                           rc: 0.42,
                           lmax: 2}
    cutoffs: {filter: 2.33,
              core: 2.81}
    valence states:
      #              energy  rcut
      - 6s(1.00)    -5.728   1.323
      - 6p(0.00)    -0.775   1.323
      - 5d(10.00)    -6.891   1.323
      -  s          21.484   1.323
      -  p          26.436   1.323
      -  d          20.321   1.323
  
    # Using partial waves for Au as LCAO basis

  O:
    name: Oxygen
    id: 32ecd46bf208036f09c70b0ec9a88b78
    Z: 8.0
    valence: 6
    core: 2
    charge: 0.0
    file: /apps/Common/software/GPAW-setups/0.9.20000/O.PBE.gz
    compensation charges: {type: gauss,
                           rc: 0.21,
                           lmax: 2}
    cutoffs: {filter: 1.17,
              core: 0.83}
    valence states:
      #              energy  rcut
      - 2s(2.00)   -23.961   0.688
      - 2p(4.00)    -9.029   0.598
      -  s           3.251   0.688
      -  p          18.182   0.598
      -  d           0.000   0.619
  
    # Using partial waves for O as LCAO basis

Reference energy: -13950194.172252  # eV

Spin-polarized calculation.
Magnetic moment: 0.000000

Convergence criteria:
 Maximum [total energy] change in last 3 cyles: 0.0005 eV / electron
 Maximum integral of absolute [dens]ity change: 0.0001 electrons / valence electron
 Maximum integral of absolute [eigenst]ate change: 4e-08 eV^2 / valence electron
 Maximum number of scf [iter]ations: 333
 (Square brackets indicate name in SCF output, whereas a 'c' in
 the SCF output indicates the quantity has converged.)

Symmetries present (total): 2

  ( 1  0  0)  ( 0  1  0)
  ( 0  1  0)  ( 1  0  0)
  ( 0  0  1)  ( 0  0  1)

16 k-points: 4 x 4 x 1 Monkhorst-Pack grid
6 k-points in the irreducible part of the Brillouin zone
       k-points in crystal coordinates                weights
   0:     0.12500000   -0.12500000    0.00000000          2/16
   1:     0.12500000    0.12500000    0.00000000          2/16
   2:     0.37500000   -0.37500000    0.00000000          2/16
   3:     0.37500000   -0.12500000    0.00000000          4/16
   4:     0.37500000    0.12500000    0.00000000          4/16
   5:     0.37500000    0.37500000    0.00000000          2/16

Wave functions: Plane wave expansion
  Cutoff energy: 450.000 eV
  Number of coefficients (min, max): 24789, 24831
  Pulay-stress correction: 0.000000 eV/Ang^3 (de/decut=0.000000)
  Using FFTW library
  ScaLapack parameters: grid=1x1, blocksize=None
  Wavefunction extrapolation:
    Improved wavefunction reuse through dual PAW basis 

Occupation numbers: Fermi-Dirac:
  width: 0.1000  # eV
 

Eigensolver
   Davidson(niter=2) 

Densities:
  Coarse grid: 45*45*84 grid
  Fine grid: 90*90*168 grid
  Total Charge: 0.000000 

Density mixing:
  Method: difference
  Backend: pulay
  Linear mixing parameter: 0.05
  old densities: 5
  Damping of long wavelength oscillations: 50 

Hamiltonian:
  XC and Coulomb potentials evaluated on a 90*90*168 grid
  Using the PBE Exchange-Correlation functional
  External potential:
    NoExternalPotential
 

XC parameters: PBE with 2 nearest neighbor stencil

Memory estimate:
  Process memory now: 298.19 MiB
  Calculator: 526.38 MiB
    Density: 12.19 MiB
      Arrays: 5.70 MiB
      Localized functions: 4.12 MiB
      Mixer: 2.37 MiB
    Hamiltonian: 4.33 MiB
      Arrays: 4.23 MiB
      XC: 0.00 MiB
      Poisson: 0.00 MiB
      vbar: 0.10 MiB
    Wavefunctions: 509.86 MiB
      Arrays psit_nG: 422.84 MiB
      Eigensolver: 77.65 MiB
      Projections: 1.06 MiB
      Projectors: 1.42 MiB
      PW-descriptor: 6.88 MiB

Total number of cores used: 16
Parallelization over k-points: 2
Domain decomposition: 2 x 2 x 2

Number of atoms: 28
Number of atomic orbitals: 247
Number of bands in calculation: 186
Number of valence electrons: 303
Bands to converge: occupied

... initialized

Initializing position-dependent things.

Density initialized from atomic densities
Creating initial wave functions:
  186 bands from LCAO basis set

                                              
                                              
                                              
                                              
                                              
                                              
                  Au     Au     Au            
                                              
           OAu     AAu    AAu    Au           
                                              
       Au     Au     AAu    Au                
        Au     Au     AAu    Au     Au        
                                              
                 Au     Au     Au             
                                              
           Au      Au     Au                  
                                              
                                              
                                              
                                              

Positions:
   0 Au     1.477146    0.852831    6.000000    ( 0.0000,  0.0000,  0.0000)
   1 Au     4.431438    0.852831    6.000000    ( 0.0000,  0.0000,  0.0000)
   2 Au     7.385730    0.852831    6.000000    ( 0.0000,  0.0000,  0.0000)
   3 Au     2.954292    3.411323    6.000000    ( 0.0000,  0.0000,  0.0000)
   4 Au     5.908584    3.411323    6.000000    ( 0.0000,  0.0000,  0.0000)
   5 Au     8.862876    3.411323    6.000000    ( 0.0000,  0.0000,  0.0000)
   6 Au     4.431438    5.969815    6.000000    ( 0.0000,  0.0000,  0.0000)
   7 Au     7.385730    5.969815    6.000000    ( 0.0000,  0.0000,  0.0000)
   8 Au    10.340022    5.969815    6.000000    ( 0.0000,  0.0000,  0.0000)
   9 Au     0.000000    1.705661    8.412169    ( 0.0000,  0.0000,  0.0000)
  10 Au     2.954292    1.705661    8.412169    ( 0.0000,  0.0000,  0.0000)
  11 Au     5.908584    1.705661    8.412169    ( 0.0000,  0.0000,  0.0000)
  12 Au     1.477146    4.264153    8.412169    ( 0.0000,  0.0000,  0.0000)
  13 Au     4.431438    4.264153    8.412169    ( 0.0000,  0.0000,  0.0000)
  14 Au     7.385730    4.264153    8.412169    ( 0.0000,  0.0000,  0.0000)
  15 Au     2.954292    6.822645    8.412169    ( 0.0000,  0.0000,  0.0000)
  16 Au     5.908584    6.822645    8.412169    ( 0.0000,  0.0000,  0.0000)
  17 Au     8.862876    6.822645    8.412169    ( 0.0000,  0.0000,  0.0000)
  18 Au     0.000000    0.000000   10.824339    ( 0.0000,  0.0000,  0.0000)
  19 Au     2.954292    0.000000   10.824339    ( 0.0000,  0.0000,  0.0000)
  20 Au     5.908584    0.000000   10.824339    ( 0.0000,  0.0000,  0.0000)
  21 Au     1.477146    2.558492   10.824339    ( 0.0000,  0.0000,  0.0000)
  22 Au     4.431438    2.558492   10.824339    ( 0.0000,  0.0000,  0.0000)
  23 Au     7.385730    2.558492   10.824339    ( 0.0000,  0.0000,  0.0000)
  24 Au     2.954292    5.116984   10.824339    ( 0.0000,  0.0000,  0.0000)
  25 Au     5.908584    5.116984   10.824339    ( 0.0000,  0.0000,  0.0000)
  26 Au     8.862876    5.116984   10.824339    ( 0.0000,  0.0000,  0.0000)
  27 O      1.477146    0.852831   12.024339    ( 0.0000,  0.0000,  0.0000)

Unit cell:
           periodic     x           y           z      points  spacing
  1. axis:    yes    8.862876    0.000000    0.000000    45     0.1706
  2. axis:    yes    4.431438    7.675476    0.000000    45     0.1706
  3. axis:    yes    0.000000    0.000000   16.824339    84     0.2003

  Lengths:   8.862876   8.862876  16.824339
  Angles:   90.000000  90.000000  60.000000

Effective grid spacing dv^(1/3) = 0.1888

     iter     time        total  log10-change:  magmom
                         energy  eigst   dens
iter:   1 13:26:35   -91.635387                  +0.0000
iter:   2 13:26:45   -89.330814  -1.77  -1.33    +0.0000
iter:   3 13:26:56   -84.466229  -1.72  -1.36    +0.0000
iter:   4 13:27:06   -85.010542  -2.25  -1.56    +0.0000
iter:   5 13:27:17   -82.920963  -1.75  -1.56    +0.0000
iter:   6 13:27:28   -82.972853  -2.49  -1.95    +0.0000
iter:   7 13:27:38   -82.871166c -2.44  -2.14    +0.0000
iter:   8 13:27:49   -82.862065c -3.39  -2.35    +0.0000
iter:   9 13:27:59   -82.798255c -3.40  -2.51    +0.0000
iter:  10 13:28:10   -82.781636c -3.85  -2.69    +0.0000
iter:  11 13:28:20   -82.774363c -3.99  -2.93    -0.0000
iter:  12 13:28:31   -82.773848c -5.05  -3.12    -0.0000
iter:  13 13:28:42   -82.773184c -4.98  -3.19    -0.0000
iter:  14 13:28:52   -82.772883c -4.55  -3.34    -0.0000
iter:  15 13:29:03   -82.772762c -5.42  -3.63    -0.0000
iter:  16 13:29:13   -82.772403c -5.55  -3.66    -0.0000
iter:  17 13:29:24   -82.772363c -6.32  -3.77    -0.0000
iter:  18 13:29:34   -82.772290c -6.08  -3.87    -0.0000
iter:  19 13:29:45   -82.772290c -7.10  -4.00    -0.0000
iter:  20 13:29:56   -82.772327c -6.65  -4.03c   -0.0000
iter:  21 13:30:06   -82.772321c -6.58  -4.23c   -0.0000
iter:  22 13:30:17   -82.772331c -7.24  -4.34c   -0.0000
iter:  23 13:30:27   -82.772324c -7.09  -4.59c   -0.0000
iter:  24 13:30:38   -82.772306c -7.41c -4.58c   -0.0000

Converged after 24 iterations.

Dipole moment: (-1.222980, -0.706088, -0.179275) |e|*Ang

Total magnetic moment: (0.000000, 0.000000, -0.000000)
Local magnetic moments:
   0 Au ( 0.000000,  0.000000, -0.000000)
   1 Au ( 0.000000,  0.000000,  0.000000)
   2 Au ( 0.000000,  0.000000, -0.000000)
   3 Au ( 0.000000,  0.000000,  0.000000)
   4 Au ( 0.000000,  0.000000, -0.000000)
   5 Au ( 0.000000,  0.000000,  0.000000)
   6 Au ( 0.000000,  0.000000, -0.000000)
   7 Au ( 0.000000,  0.000000,  0.000000)
   8 Au ( 0.000000,  0.000000,  0.000000)
   9 Au ( 0.000000,  0.000000, -0.000000)
  10 Au ( 0.000000,  0.000000,  0.000000)
  11 Au ( 0.000000,  0.000000, -0.000000)
  12 Au ( 0.000000,  0.000000,  0.000000)
  13 Au ( 0.000000,  0.000000, -0.000000)
  14 Au ( 0.000000,  0.000000, -0.000000)
  15 Au ( 0.000000,  0.000000, -0.000000)
  16 Au ( 0.000000,  0.000000, -0.000000)
  17 Au ( 0.000000,  0.000000,  0.000000)
  18 Au ( 0.000000,  0.000000, -0.000000)
  19 Au ( 0.000000,  0.000000, -0.000000)
  20 Au ( 0.000000,  0.000000, -0.000000)
  21 Au ( 0.000000,  0.000000, -0.000000)
  22 Au ( 0.000000,  0.000000,  0.000000)
  23 Au ( 0.000000,  0.000000, -0.000000)
  24 Au ( 0.000000,  0.000000, -0.000000)
  25 Au ( 0.000000,  0.000000, -0.000000)
  26 Au ( 0.000000,  0.000000,  0.000000)
  27 O  ( 0.000000,  0.000000, -0.000000)

Energy contributions relative to reference atoms: (reference = -13950194.172252)

Kinetic:       -290.878781
Potential:     +234.725885
External:        +0.000000
XC:             -29.575110
Entropy (-ST):   -0.260309
Local:           +3.085854
--------------------------
Free energy:    -82.902461
Extrapolated:   -82.772306

Spin contamination: 0.000000 electrons
Showing only first 2 kpts
                      Up                     Down
 Kpt  Band  Eigenvalues  Occupancy  Eigenvalues  Occupancy
  0   149     -0.14977    0.99991     -0.14977    0.99991
  0   150      0.13467    0.99850      0.13467    0.99850
  0   151      0.34066    0.98834      0.34066    0.98834
  0   152      0.42493    0.97333      0.42493    0.97333

  1   149     -0.46123    1.00000     -0.46123    1.00000
  1   150     -0.26701    0.99997     -0.26701    0.99997
  1   151      0.22069    0.99646      0.22069    0.99646
  1   152      0.23037    0.99610      0.23037    0.99610


Fermi level: 0.78464

No gap

Forces in eV/Ang:
  0 Au    0.00419    0.00242   -0.08271
  1 Au   -0.02699    0.00456   -0.05890
  2 Au    0.01660   -0.02821   -0.05833
  3 Au   -0.00954   -0.02565   -0.05890
  4 Au   -0.00681   -0.00393   -0.00068
  5 Au    0.00815   -0.00655   -0.06272
  6 Au   -0.01613    0.02848   -0.05833
  7 Au   -0.00160    0.01034   -0.06272
  8 Au    0.01256    0.00725    0.10288
  9 Au   -0.04330    0.03657   -0.05603
 10 Au    0.04903    0.02831   -0.07157
 11 Au   -0.00798   -0.01384    0.01821
 12 Au    0.00605   -0.24359    0.20060
 13 Au   -0.01598    0.00001    0.01821
 14 Au    0.01929    0.01114    0.02919
 15 Au    0.20029    0.11564    0.20774
 16 Au    0.01002   -0.05579   -0.05603
 17 Au   -0.20793    0.12704    0.20060
 18 Au   -1.66210   -0.95962   -0.45340
 19 Au    1.63200   -0.95158   -0.43892
 20 Au    0.01540   -0.00837   -0.05883
 21 Au   -0.00809    1.88914   -0.43892
 22 Au    0.26406    0.15246   -0.06281
 23 Au   -0.25526    0.15263   -0.05795
 24 Au    0.00045    0.01752   -0.05883
 25 Au    0.00455   -0.29738   -0.05795
 26 Au    0.00109    0.00063   -0.05714
 27 O     0.01808    0.01044    1.49354

System changes: positions 

Initializing position-dependent things.

Density initialized from wave functions
                                              
                                              
                                              
                                              
                                              
                                              
                                              
                  Au     Au     Au            
           O                                  
            Au     AAu    AAu    Au           
       Au     Au     AAu    Au                
                                              
        Au     Au     AAu    Au     Au        
                                              
                 Au     Au     Au             
                                              
           Au      Au     Au                  
                                              
                                              
                                              
                                              

Positions:
   0 Au     1.477146    0.852831    6.000000    ( 0.0000,  0.0000,  0.0000)
   1 Au     4.431438    0.852831    6.000000    ( 0.0000,  0.0000,  0.0000)
   2 Au     7.385730    0.852831    6.000000    ( 0.0000,  0.0000,  0.0000)
   3 Au     2.954292    3.411323    6.000000    ( 0.0000,  0.0000,  0.0000)
   4 Au     5.908584    3.411323    6.000000    ( 0.0000,  0.0000,  0.0000)
   5 Au     8.862876    3.411323    6.000000    ( 0.0000,  0.0000,  0.0000)
   6 Au     4.431438    5.969815    6.000000    ( 0.0000,  0.0000,  0.0000)
   7 Au     7.385730    5.969815    6.000000    ( 0.0000,  0.0000,  0.0000)
   8 Au    10.340022    5.969815    6.000000    ( 0.0000,  0.0000,  0.0000)
   9 Au     0.000000    1.705661    8.412169    ( 0.0000,  0.0000,  0.0000)
  10 Au     2.954292    1.705661    8.412169    ( 0.0000,  0.0000,  0.0000)
  11 Au     5.908584    1.705661    8.412169    ( 0.0000,  0.0000,  0.0000)
  12 Au     1.477146    4.264153    8.412169    ( 0.0000,  0.0000,  0.0000)
  13 Au     4.431438    4.264153    8.412169    ( 0.0000,  0.0000,  0.0000)
  14 Au     7.385730    4.264153    8.412169    ( 0.0000,  0.0000,  0.0000)
  15 Au     2.954292    6.822645    8.412169    ( 0.0000,  0.0000,  0.0000)
  16 Au     5.908584    6.822645    8.412169    ( 0.0000,  0.0000,  0.0000)
  17 Au     8.862876    6.822645    8.412169    ( 0.0000,  0.0000,  0.0000)
  18 Au     0.000000    0.000000   10.824339    ( 0.0000,  0.0000,  0.0000)
  19 Au     2.954292    0.000000   10.824339    ( 0.0000,  0.0000,  0.0000)
  20 Au     5.908584    0.000000   10.824339    ( 0.0000,  0.0000,  0.0000)
  21 Au     1.477146    2.558492   10.824339    ( 0.0000,  0.0000,  0.0000)
  22 Au     4.431438    2.558492   10.824339    ( 0.0000,  0.0000,  0.0000)
  23 Au     7.385730    2.558492   10.824339    ( 0.0000,  0.0000,  0.0000)
  24 Au     2.954292    5.116984   10.824339    ( 0.0000,  0.0000,  0.0000)
  25 Au     5.908584    5.116984   10.824339    ( 0.0000,  0.0000,  0.0000)
  26 Au     8.862876    5.116984   10.824339    ( 0.0000,  0.0000,  0.0000)
  27 O      1.481987    0.855626   12.424300    ( 0.0000,  0.0000,  0.0000)

Unit cell:
           periodic     x           y           z      points  spacing
  1. axis:    yes    8.862876    0.000000    0.000000    45     0.1706
  2. axis:    yes    4.431438    7.675476    0.000000    45     0.1706
  3. axis:    yes    0.000000    0.000000   16.824339    84     0.2003

  Lengths:   8.862876   8.862876  16.824339
  Angles:   90.000000  90.000000  60.000000

Effective grid spacing dv^(1/3) = 0.1888

     iter     time        total  log10-change:  magmom
                         energy  eigst   dens
iter:   1 13:30:53   -88.203349  -1.06           -0.0000
iter:   2 13:31:04   -84.316022  -2.21  -1.75    -0.0000
iter:   3 13:31:14   -83.177243  -2.02  -2.02    -0.0000
iter:   4 13:31:25   -82.995297  -3.36  -2.11    -0.0000
iter:   5 13:31:35   -82.826917  -2.44  -2.33    -0.0000
iter:   6 13:31:46   -82.684612  -2.91  -2.44    -0.0000
iter:   7 13:31:57   -82.653797  -3.29  -2.65    -0.0000
iter:   8 13:32:07   -82.626413c -3.58  -2.73    -0.0000
iter:   9 13:32:18   -82.621776c -4.02  -2.97    -0.0000
iter:  10 13:32:28   -82.619220c -4.40  -3.13    +0.0000
iter:  11 13:32:39   -82.618016c -4.67  -3.27    +0.0000
iter:  12 13:32:50   -82.617669c -5.51  -3.50    +0.0000
iter:  13 13:33:00   -82.617409c -5.63  -3.61    +0.0000
iter:  14 13:33:11   -82.617331c -5.59  -3.73    +0.0000
iter:  15 13:33:21   -82.617249c -6.07  -3.86    +0.0000
iter:  16 13:33:32   -82.617225c -6.82  -4.14c   +0.0000
iter:  17 13:33:42   -82.617232c -6.81  -4.25c   +0.0000
iter:  18 13:33:53   -82.617230c -6.64  -4.29c   +0.0000
iter:  19 13:34:04   -82.617232c -7.70c -4.62c   +0.0000

Converged after 19 iterations.

Dipole moment: (-1.035087, -0.597607, -0.430849) |e|*Ang

Total magnetic moment: (0.000000, 0.000000, 0.000000)
Local magnetic moments:
   0 Au ( 0.000000,  0.000000,  0.000000)
   1 Au ( 0.000000,  0.000000,  0.000000)
   2 Au ( 0.000000,  0.000000,  0.000000)
   3 Au ( 0.000000,  0.000000,  0.000000)
   4 Au ( 0.000000,  0.000000,  0.000000)
   5 Au ( 0.000000,  0.000000,  0.000000)
   6 Au ( 0.000000,  0.000000,  0.000000)
   7 Au ( 0.000000,  0.000000,  0.000000)
   8 Au ( 0.000000,  0.000000, -0.000000)
   9 Au ( 0.000000,  0.000000,  0.000000)
  10 Au ( 0.000000,  0.000000,  0.000000)
  11 Au ( 0.000000,  0.000000,  0.000000)
  12 Au ( 0.000000,  0.000000,  0.000000)
  13 Au ( 0.000000,  0.000000,  0.000000)
  14 Au ( 0.000000,  0.000000,  0.000000)
  15 Au ( 0.000000,  0.000000,  0.000000)
  16 Au ( 0.000000,  0.000000,  0.000000)
  17 Au ( 0.000000,  0.000000,  0.000000)
  18 Au ( 0.000000,  0.000000, -0.000000)
  19 Au ( 0.000000,  0.000000, -0.000000)
  20 Au ( 0.000000,  0.000000, -0.000000)
  21 Au ( 0.000000,  0.000000, -0.000000)
  22 Au ( 0.000000,  0.000000,  0.000000)
  23 Au ( 0.000000,  0.000000,  0.000000)
  24 Au ( 0.000000,  0.000000, -0.000000)
  25 Au ( 0.000000,  0.000000,  0.000000)
  26 Au ( 0.000000,  0.000000,  0.000000)
  27 O  ( 0.000000,  0.000000,  0.000000)

Energy contributions relative to reference atoms: (reference = -13950194.172252)

Kinetic:       -309.355977
Potential:     +250.545533
External:        +0.000000
XC:             -26.690392
Entropy (-ST):   -0.272070
Local:           +3.019639
--------------------------
Free energy:    -82.753267
Extrapolated:   -82.617232

Spin contamination: 0.000000 electrons
Showing only first 2 kpts
                      Up                     Down
 Kpt  Band  Eigenvalues  Occupancy  Eigenvalues  Occupancy
  0   149     -0.20757    0.99988     -0.20757    0.99988
  0   150      0.04898    0.99839      0.04898    0.99839
  0   151      0.20717    0.99220      0.20717    0.99220
  0   152      0.32400    0.97534      0.32400    0.97534

  1   149     -0.54880    1.00000     -0.54880    1.00000
  1   150     -0.34376    0.99997     -0.34376    0.99997
  1   151      0.10579    0.99716      0.10579    0.99716
  1   152      0.11551    0.99687      0.11551    0.99687


Fermi level: 0.69174

No gap

Forces in eV/Ang:
  0 Au    0.00025    0.00014   -0.09035
  1 Au   -0.02192    0.01415   -0.05389
  2 Au    0.01547   -0.02027   -0.05440
  3 Au    0.00130   -0.02606   -0.05389
  4 Au   -0.00852   -0.00492    0.01211
  5 Au   -0.00024   -0.00763   -0.05421
  6 Au   -0.00982    0.02354   -0.05440
  7 Au   -0.00673    0.00360   -0.05421
  8 Au    0.01192    0.00688    0.11915
  9 Au   -0.00751    0.01299    0.00945
 10 Au    0.01328    0.00767   -0.00970
 11 Au   -0.00550   -0.00844    0.02230
 12 Au    0.00445   -0.22130    0.17958
 13 Au   -0.01006   -0.00054    0.02230
 14 Au    0.01215    0.00702    0.03183
 15 Au    0.18372    0.10607    0.18240
 16 Au    0.00750   -0.01300    0.00945
 17 Au   -0.18942    0.11450    0.17958
 18 Au   -0.25167   -0.14530    0.53986
 19 Au    0.23494   -0.14026    0.55697
 20 Au    0.01362    0.01541   -0.03099
 21 Au   -0.00399    0.27359    0.55697
 22 Au    0.19358    0.11176   -0.04086
 23 Au   -0.18471    0.10592   -0.03836
 24 Au    0.02015    0.00409   -0.03099
 25 Au   -0.00063   -0.21292   -0.03836
 26 Au   -0.01483   -0.00856   -0.02689
 27 O     0.00240    0.00139   -1.78252

System changes: positions 

Initializing position-dependent things.

Density initialized from wave functions
                                              
                                              
                                              
                                              
                                              
                                              
                  Au     Au     Au            
                                              
           OAu     AAu    AAu    Au           
                                              
       Au     Au     AAu    Au                
        Au     Au     AAu    Au     Au        
                                              
                 Au     Au     Au             
                                              
           Au      Au     Au                  
                                              
                                              
                                              
                                              

Positions:
   0 Au     1.477146    0.852831    6.000000    ( 0.0000,  0.0000,  0.0000)
   1 Au     4.431438    0.852831    6.000000    ( 0.0000,  0.0000,  0.0000)
   2 Au     7.385730    0.852831    6.000000    ( 0.0000,  0.0000,  0.0000)
   3 Au     2.954292    3.411323    6.000000    ( 0.0000,  0.0000,  0.0000)
   4 Au     5.908584    3.411323    6.000000    ( 0.0000,  0.0000,  0.0000)
   5 Au     8.862876    3.411323    6.000000    ( 0.0000,  0.0000,  0.0000)
   6 Au     4.431438    5.969815    6.000000    ( 0.0000,  0.0000,  0.0000)
   7 Au     7.385730    5.969815    6.000000    ( 0.0000,  0.0000,  0.0000)
   8 Au    10.340022    5.969815    6.000000    ( 0.0000,  0.0000,  0.0000)
   9 Au     0.000000    1.705661    8.412169    ( 0.0000,  0.0000,  0.0000)
  10 Au     2.954292    1.705661    8.412169    ( 0.0000,  0.0000,  0.0000)
  11 Au     5.908584    1.705661    8.412169    ( 0.0000,  0.0000,  0.0000)
  12 Au     1.477146    4.264153    8.412169    ( 0.0000,  0.0000,  0.0000)
  13 Au     4.431438    4.264153    8.412169    ( 0.0000,  0.0000,  0.0000)
  14 Au     7.385730    4.264153    8.412169    ( 0.0000,  0.0000,  0.0000)
  15 Au     2.954292    6.822645    8.412169    ( 0.0000,  0.0000,  0.0000)
  16 Au     5.908584    6.822645    8.412169    ( 0.0000,  0.0000,  0.0000)
  17 Au     8.862876    6.822645    8.412169    ( 0.0000,  0.0000,  0.0000)
  18 Au     0.000000    0.000000   10.824339    ( 0.0000,  0.0000,  0.0000)
  19 Au     2.954292    0.000000   10.824339    ( 0.0000,  0.0000,  0.0000)
  20 Au     5.908584    0.000000   10.824339    ( 0.0000,  0.0000,  0.0000)
  21 Au     1.477146    2.558492   10.824339    ( 0.0000,  0.0000,  0.0000)
  22 Au     4.431438    2.558492   10.824339    ( 0.0000,  0.0000,  0.0000)
  23 Au     7.385730    2.558492   10.824339    ( 0.0000,  0.0000,  0.0000)
  24 Au     2.954292    5.116984   10.824339    ( 0.0000,  0.0000,  0.0000)
  25 Au     5.908584    5.116984   10.824339    ( 0.0000,  0.0000,  0.0000)
  26 Au     8.862876    5.116984   10.824339    ( 0.0000,  0.0000,  0.0000)
  27 O      1.484703    0.857194   12.174992    ( 0.0000,  0.0000,  0.0000)

Unit cell:
           periodic     x           y           z      points  spacing
  1. axis:    yes    8.862876    0.000000    0.000000    45     0.1706
  2. axis:    yes    4.431438    7.675476    0.000000    45     0.1706
  3. axis:    yes    0.000000    0.000000   16.824339    84     0.2003

  Lengths:   8.862876   8.862876  16.824339
  Angles:   90.000000  90.000000  60.000000

Effective grid spacing dv^(1/3) = 0.1888

     iter     time        total  log10-change:  magmom
                         energy  eigst   dens
iter:   1 13:34:19   -86.003801  -1.96           +0.0000
iter:   2 13:34:29   -83.038586  -2.14  -1.79    +0.0000
iter:   3 13:34:40   -82.961938  -3.35  -2.36    +0.0000
iter:   4 13:34:50   -82.911934c -3.23  -2.56    -0.0000
iter:   5 13:35:01   -82.893510c -3.21  -2.79    -0.0000
iter:   6 13:35:11   -82.880103c -4.08  -2.95    -0.0000
iter:   7 13:35:22   -82.879190c -5.16  -3.11    -0.0000
iter:   8 13:35:33   -82.876115c -4.05  -3.16    -0.0000
iter:   9 13:35:43   -82.875987c -5.12  -3.45    -0.0000
iter:  10 13:35:54   -82.875608c -5.58  -3.53    -0.0000
iter:  11 13:36:04   -82.875520c -5.23  -3.66    -0.0000
iter:  12 13:36:15   -82.875493c -6.08  -3.86    -0.0000
iter:  13 13:36:26   -82.875449c -6.05  -3.93    -0.0000
iter:  14 13:36:36   -82.875469c -6.70  -4.14c   -0.0000
iter:  15 13:36:47   -82.875457c -7.55c -4.18c   -0.0000

Converged after 15 iterations.

Dipole moment: (-1.113597, -0.642936, -0.266685) |e|*Ang

Total magnetic moment: (0.000000, 0.000000, -0.000000)
Local magnetic moments:
   0 Au ( 0.000000,  0.000000, -0.000000)
   1 Au ( 0.000000,  0.000000, -0.000000)
   2 Au ( 0.000000,  0.000000,  0.000000)
   3 Au ( 0.000000,  0.000000, -0.000000)
   4 Au ( 0.000000,  0.000000, -0.000000)
   5 Au ( 0.000000,  0.000000,  0.000000)
   6 Au ( 0.000000,  0.000000,  0.000000)
   7 Au ( 0.000000,  0.000000,  0.000000)
   8 Au ( 0.000000,  0.000000, -0.000000)
   9 Au ( 0.000000,  0.000000, -0.000000)
  10 Au ( 0.000000,  0.000000, -0.000000)
  11 Au ( 0.000000,  0.000000,  0.000000)
  12 Au ( 0.000000,  0.000000,  0.000000)
  13 Au ( 0.000000,  0.000000,  0.000000)
  14 Au ( 0.000000,  0.000000,  0.000000)
  15 Au ( 0.000000,  0.000000,  0.000000)
  16 Au ( 0.000000,  0.000000, -0.000000)
  17 Au ( 0.000000,  0.000000,  0.000000)
  18 Au ( 0.000000,  0.000000, -0.000000)
  19 Au ( 0.000000,  0.000000, -0.000000)
  20 Au ( 0.000000,  0.000000,  0.000000)
  21 Au ( 0.000000,  0.000000, -0.000000)
  22 Au ( 0.000000,  0.000000, -0.000000)
  23 Au ( 0.000000,  0.000000,  0.000000)
  24 Au ( 0.000000,  0.000000,  0.000000)
  25 Au ( 0.000000,  0.000000,  0.000000)
  26 Au ( 0.000000,  0.000000,  0.000000)
  27 O  ( 0.000000,  0.000000, -0.000000)

Energy contributions relative to reference atoms: (reference = -13950194.172252)

Kinetic:       -299.558874
Potential:     +242.114636
External:        +0.000000
XC:             -28.376140
Entropy (-ST):   -0.262108
Local:           +3.075975
--------------------------
Free energy:    -83.006511
Extrapolated:   -82.875457

Spin contamination: 0.000000 electrons
Showing only first 2 kpts
                      Up                     Down
 Kpt  Band  Eigenvalues  Occupancy  Eigenvalues  Occupancy
  0   149     -0.18022    0.99991     -0.18022    0.99991
  0   150      0.09581    0.99860      0.09581    0.99860
  0   151      0.28013    0.99125      0.28013    0.99125
  0   152      0.38427    0.97560      0.38427    0.97560

  1   149     -0.50268    1.00000     -0.50268    1.00000
  1   150     -0.29515    0.99997     -0.29515    0.99997
  1   151      0.16284    0.99728      0.16284    0.99728
  1   152      0.16996    0.99707      0.16996    0.99707


Fermi level: 0.75310

No gap

Forces in eV/Ang:
  0 Au    0.00203    0.00117   -0.08814
  1 Au   -0.02750    0.00967   -0.05761
  2 Au    0.01930   -0.02366   -0.05766
  3 Au   -0.00538   -0.02865   -0.05761
  4 Au   -0.00772   -0.00445    0.00508
  5 Au    0.00517   -0.00994   -0.06035
  6 Au   -0.01084    0.02854   -0.05766
  7 Au   -0.00602    0.00945   -0.06035
  8 Au    0.01185    0.00684    0.11581
  9 Au   -0.03053    0.02776   -0.02697
 10 Au    0.03666    0.02116   -0.04568
 11 Au   -0.00719   -0.00940    0.02109
 12 Au    0.00520   -0.23379    0.19556
 13 Au   -0.01174   -0.00152    0.02109
 14 Au    0.01453    0.00839    0.03168
 15 Au    0.19160    0.11062    0.19924
 16 Au    0.00878   -0.04032   -0.02697
 17 Au   -0.19987    0.12140    0.19556
 18 Au   -0.89306   -0.51561    0.04567
 19 Au    0.89749   -0.52841    0.03759
 20 Au    0.01748    0.00053   -0.04800
 21 Au   -0.00887    1.04145    0.03759
 22 Au    0.24554    0.14176   -0.05388
 23 Au   -0.23432    0.13684   -0.04897
 24 Au    0.00920    0.01487   -0.04800
 25 Au    0.00135   -0.27135   -0.04897
 26 Au   -0.00492   -0.00284   -0.04704
 27 O    -0.01844   -0.01065   -0.08520

Timing:                                      incl.     excl.
-------------------------------------------------------------------
Density initialized from wave functions:     1.549     1.460   0.2% |
 Symmetrize density:                         0.090     0.090   0.0% |
Forces:                                      5.781     5.781   0.9% |
Hamiltonian:                                 1.788     0.012   0.0% |
 Atomic:                                     0.903     0.452   0.1% |
  XC Correction:                             0.451     0.451   0.1% |
 Calculate atomic Hamiltonians:              0.252     0.252   0.0% |
 Communicate:                                0.005     0.005   0.0% |
 Initialize Hamiltonian:                     0.000     0.000   0.0% |
 Poisson:                                    0.003     0.003   0.0% |
 XC 3D grid:                                 0.612     0.612   0.1% |
LCAO initialization:                        15.821     0.147   0.0% |
 LCAO eigensolver:                           2.120     0.002   0.0% |
  Calculate projections:                     0.006     0.006   0.0% |
  DenseAtomicCorrection:                     0.009     0.009   0.0% |
  Distribute overlap matrix:                 0.380     0.380   0.1% |
  Orbital Layouts:                           0.202     0.202   0.0% |
  Potential matrix:                          1.507     1.507   0.2% |
  Sum over cells:                            0.014     0.014   0.0% |
 LCAO to grid:                              13.313    13.313   2.1% ||
 Set positions (LCAO WFS):                   0.241     0.086   0.0% |
  Basic WFS set positions:                   0.002     0.002   0.0% |
  Basis functions set positions:             0.000     0.000   0.0% |
  P tci:                                     0.093     0.093   0.0% |
  ST tci:                                    0.031     0.031   0.0% |
  mktci:                                     0.028     0.028   0.0% |
PWDescriptor:                                0.338     0.338   0.1% |
Redistribute:                                0.006     0.006   0.0% |
SCF-cycle:                                 611.594     4.403   0.7% |
 Davidson:                                 530.576    97.132  15.1% |-----|
  Apply H:                                  60.603    59.046   9.2% |---|
   HMM T:                                    1.558     1.558   0.2% |
  Subspace diag:                            90.518     0.052   0.0% |
   calc_h_matrix:                           70.085     9.427   1.5% ||
    Apply H:                                60.658    59.101   9.2% |---|
     HMM T:                                  1.557     1.557   0.2% |
   diagonalize:                              5.204     5.204   0.8% |
   rotate_psi:                              15.177    15.177   2.4% ||
  calc. matrices:                          179.743    58.463   9.1% |---|
   Apply H:                                121.279   118.166  18.3% |------|
    HMM T:                                   3.113     3.113   0.5% |
  diagonalize:                              72.721    72.721  11.3% |----|
  rotate_psi:                               29.859    29.859   4.6% |-|
 Density:                                   41.743     0.002   0.0% |
  Atomic density matrices:                   0.331     0.331   0.1% |
  Mix:                                       7.624     7.624   1.2% |
  Multipole moments:                         0.012     0.012   0.0% |
  Pseudo density:                           33.774    31.328   4.9% |-|
   Symmetrize density:                       2.446     2.446   0.4% |
 Hamiltonian:                               32.996     0.215   0.0% |
  Atomic:                                   16.839     8.333   1.3% ||
   XC Correction:                            8.506     8.506   1.3% ||
  Calculate atomic Hamiltonians:             4.495     4.495   0.7% |
  Communicate:                               0.105     0.105   0.0% |
  Poisson:                                   0.060     0.060   0.0% |
  XC 3D grid:                               11.282    11.282   1.8% ||
 Orthonormalize:                             1.876     0.003   0.0% |
  calc_s_matrix:                             0.234     0.234   0.0% |
  inverse-cholesky:                          0.104     0.104   0.0% |
  projections:                               1.115     1.115   0.2% |
  rotate_psi_s:                              0.420     0.420   0.1% |
Set symmetry:                                0.002     0.002   0.0% |
Other:                                       7.364     7.364   1.1% |
-------------------------------------------------------------------
Total:                                               644.242 100.0%

Memory usage: 545.80 MiB
Date: Fri Feb 24 13:36:50 2023
