
  ___ ___ ___ _ _ _  
 |   |   |_  | | | | 
 | | | | | . | | | | 
 |__ |  _|___|_____|  22.8.0
 |___|_|             

User:   nicog@vera13-3
Date:   Fri Feb 24 15:29:16 2023
Arch:   x86_64
Pid:    2953712
CWD:    /cephyr/users/nicog/Vera/Computational_Materials_2023/A4
Python: 3.10.4
gpaw:   /apps/Arch/software/GPAW/22.8.0-foss-2022a/lib/python3.10/site-packages/gpaw
_gpaw:  /apps/Arch/software/GPAW/22.8.0-foss-2022a/lib/python3.10/site-packages/
        _gpaw.cpython-310-x86_64-linux-gnu.so
ase:    /apps/Arch/software/ASE/3.22.1-foss-2022a/lib/python3.10/site-packages/ase (version 3.22.1)
numpy:  /apps/Arch/software/SciPy-bundle/2022.05-foss-2022a/lib/python3.10/site-packages/numpy (version 1.22.3)
scipy:  /apps/Arch/software/SciPy-bundle/2022.05-foss-2022a/lib/python3.10/site-packages/scipy (version 1.8.1)
libxc:  5.2.3
units:  Angstrom and eV
cores: 16
OpenMP: False
OMP_NUM_THREADS: 1

Input parameters:
  kpts: [4 4 1]
  mode: {ecut: 450.00000000000006,
         name: pw}
  spinpol: True
  xc: PBE

System changes: positions, numbers, cell, pbc, initial_charges, initial_magmoms 

Initialize ...

species:
  Rh:
    name: Rhodium
    id: 4e1d209aee696a641de1ffa1459b299f
    Z: 45.0
    valence: 15
    core: 30
    charge: 0.0
    file: /apps/Common/software/GPAW-setups/0.9.20000/Rh.PBE.gz
    compensation charges: {type: gauss,
                           rc: 0.38,
                           lmax: 2}
    cutoffs: {filter: 2.48,
              core: 2.35}
    valence states:
      #              energy  rcut
      - 5s(1.00)    -4.297   1.270
      - 4p(6.00)   -50.429   1.381
      - 5p(0.00)    -0.852   1.381
      - 4d(8.00)    -5.942   1.244
      -  s          22.915   1.270
      -  d          21.270   1.244
  
    # Using partial waves for Rh as LCAO basis

  O:
    name: Oxygen
    id: 32ecd46bf208036f09c70b0ec9a88b78
    Z: 8.0
    valence: 6
    core: 2
    charge: 0.0
    file: /apps/Common/software/GPAW-setups/0.9.20000/O.PBE.gz
    compensation charges: {type: gauss,
                           rc: 0.21,
                           lmax: 2}
    cutoffs: {filter: 1.17,
              core: 0.83}
    valence states:
      #              energy  rcut
      - 2s(2.00)   -23.961   0.688
      - 2p(4.00)    -9.029   0.598
      -  s           3.251   0.688
      -  p          18.182   0.598
      -  d           0.000   0.619
  
    # Using partial waves for O as LCAO basis

  C:
    name: Carbon
    id: 4aa54d4b901d75f77cc0ea3eec22967b
    Z: 6.0
    valence: 4
    core: 2
    charge: 0.0
    file: /apps/Common/software/GPAW-setups/0.9.20000/C.PBE.gz
    compensation charges: {type: gauss,
                           rc: 0.20,
                           lmax: 2}
    cutoffs: {filter: 1.14,
              core: 1.14}
    valence states:
      #              energy  rcut
      - 2s(2.00)   -13.751   0.635
      - 2p(2.00)    -5.284   0.635
      -  s          13.461   0.635
      -  p          21.927   0.635
      -  d           0.000   0.635
  
    # Using partial waves for C as LCAO basis

Reference energy: -3516703.949422  # eV

Spin-polarized calculation.
Magnetic moment: 0.000000

Convergence criteria:
 Maximum [total energy] change in last 3 cyles: 0.0005 eV / electron
 Maximum integral of absolute [dens]ity change: 0.0001 electrons / valence electron
 Maximum integral of absolute [eigenst]ate change: 4e-08 eV^2 / valence electron
 Maximum number of scf [iter]ations: 333
 (Square brackets indicate name in SCF output, whereas a 'c' in
 the SCF output indicates the quantity has converged.)

Symmetries present (total): 6

  ( 1  0  0)  ( 1 -1  0)  ( 0  1  0)  ( 0 -1  0)  (-1  1  0)  (-1  0  0)
  ( 0  1  0)  ( 0 -1  0)  ( 1  0  0)  ( 1 -1  0)  (-1  0  0)  (-1  1  0)
  ( 0  0  1)  ( 0  0  1)  ( 0  0  1)  ( 0  0  1)  ( 0  0  1)  ( 0  0  1)
Note: your k-points are not as symmetric as your crystal!

16 k-points: 4 x 4 x 1 Monkhorst-Pack grid
6 k-points in the irreducible part of the Brillouin zone
       k-points in crystal coordinates                weights
   0:     0.12500000   -0.12500000    0.00000000          2/16
   1:     0.12500000    0.12500000    0.00000000          2/16
   2:     0.37500000   -0.37500000    0.00000000          2/16
   3:     0.37500000   -0.12500000    0.00000000          4/16
   4:     0.37500000    0.12500000    0.00000000          4/16
   5:     0.37500000    0.37500000    0.00000000          2/16

Wave functions: Plane wave expansion
  Cutoff energy: 450.000 eV
  Number of coefficients (min, max): 20422, 20468
  Pulay-stress correction: 0.000000 eV/Ang^3 (de/decut=0.000000)
  Using FFTW library
  ScaLapack parameters: grid=1x1, blocksize=None
  Wavefunction extrapolation:
    Improved wavefunction reuse through dual PAW basis 

Occupation numbers: Fermi-Dirac:
  width: 0.1000  # eV
 

Eigensolver
   Davidson(niter=2) 

Densities:
  Coarse grid: 40*40*81 grid
  Fine grid: 80*80*162 grid
  Total Charge: 0.000000 

Density mixing:
  Method: difference
  Backend: pulay
  Linear mixing parameter: 0.05
  old densities: 5
  Damping of long wavelength oscillations: 50 

Hamiltonian:
  XC and Coulomb potentials evaluated on a 80*80*162 grid
  Using the PBE Exchange-Correlation functional
  External potential:
    NoExternalPotential
 

XC parameters: PBE with 2 nearest neighbor stencil

Memory estimate:
  Process memory now: 655.95 MiB
  Calculator: 586.29 MiB
    Density: 10.26 MiB
      Arrays: 4.39 MiB
      Localized functions: 4.08 MiB
      Mixer: 1.79 MiB
    Hamiltonian: 3.37 MiB
      Arrays: 3.26 MiB
      XC: 0.00 MiB
      Poisson: 0.00 MiB
      vbar: 0.11 MiB
    Wavefunctions: 572.66 MiB
      Arrays psit_nG: 474.10 MiB
      Eigensolver: 90.35 MiB
      Projections: 1.48 MiB
      Projectors: 1.46 MiB
      PW-descriptor: 5.27 MiB

Total number of cores used: 16
Parallelization over k-points: 2
Domain decomposition: 1 x 2 x 4

Number of atoms: 29
Number of atomic orbitals: 332
Number of bands in calculation: 253
Number of valence electrons: 415
Bands to converge: occupied

... initialized

Initializing position-dependent things.

Density initialized from atomic densities
Creating initial wave functions:
  253 bands from LCAO basis set

                                           
                                           
                                           
                                           
                                           
                                           
                                           
       O                                   
                Rh     Rh     Rh           
       C                                   
            Rh   RRh    RRh    Rh          
       Rh    RRh   RRh    Rh               
                                           
        Rh     Rh   RRh    Rh    Rh        
                                           
                Rh    Rh     Rh            
           Rh    Rh     Rh                 
                                           
                                           
                                           
                                           

Positions:
   0 Rh     1.356584    0.783224    6.000000    ( 0.0000,  0.0000,  0.0000)
   1 Rh     4.069753    0.783224    6.000000    ( 0.0000,  0.0000,  0.0000)
   2 Rh     6.782922    0.783224    6.000000    ( 0.0000,  0.0000,  0.0000)
   3 Rh     2.713169    3.132897    6.000000    ( 0.0000,  0.0000,  0.0000)
   4 Rh     5.426337    3.132897    6.000000    ( 0.0000,  0.0000,  0.0000)
   5 Rh     8.139506    3.132897    6.000000    ( 0.0000,  0.0000,  0.0000)
   6 Rh     4.069753    5.482570    6.000000    ( 0.0000,  0.0000,  0.0000)
   7 Rh     6.782922    5.482570    6.000000    ( 0.0000,  0.0000,  0.0000)
   8 Rh     9.496091    5.482570    6.000000    ( 0.0000,  0.0000,  0.0000)
   9 Rh    -0.000000    1.566449    8.215293    ( 0.0000,  0.0000,  0.0000)
  10 Rh     2.713169    1.566449    8.215293    ( 0.0000,  0.0000,  0.0000)
  11 Rh     5.426337    1.566449    8.215293    ( 0.0000,  0.0000,  0.0000)
  12 Rh     1.356584    3.916122    8.215293    ( 0.0000,  0.0000,  0.0000)
  13 Rh     4.069753    3.916122    8.215293    ( 0.0000,  0.0000,  0.0000)
  14 Rh     6.782922    3.916122    8.215293    ( 0.0000,  0.0000,  0.0000)
  15 Rh     2.713169    6.265795    8.215293    ( 0.0000,  0.0000,  0.0000)
  16 Rh     5.426337    6.265795    8.215293    ( 0.0000,  0.0000,  0.0000)
  17 Rh     8.139506    6.265795    8.215293    ( 0.0000,  0.0000,  0.0000)
  18 Rh     0.000000    0.000000   10.430586    ( 0.0000,  0.0000,  0.0000)
  19 Rh     2.713169    0.000000   10.430586    ( 0.0000,  0.0000,  0.0000)
  20 Rh     5.426337    0.000000   10.430586    ( 0.0000,  0.0000,  0.0000)
  21 Rh     1.356584    2.349673   10.430586    ( 0.0000,  0.0000,  0.0000)
  22 Rh     4.069753    2.349673   10.430586    ( 0.0000,  0.0000,  0.0000)
  23 Rh     6.782922    2.349673   10.430586    ( 0.0000,  0.0000,  0.0000)
  24 Rh     2.713169    4.699346   10.430586    ( 0.0000,  0.0000,  0.0000)
  25 Rh     5.426337    4.699346   10.430586    ( 0.0000,  0.0000,  0.0000)
  26 Rh     8.139506    4.699346   10.430586    ( 0.0000,  0.0000,  0.0000)
  27 O      0.000000    0.000000   13.580586    ( 0.0000,  0.0000,  0.0000)
  28 C      0.000000    0.000000   12.430246    ( 0.0000,  0.0000,  0.0000)

Unit cell:
           periodic     x           y           z      points  spacing
  1. axis:    yes    8.139506    0.000000    0.000000    40     0.1762
  2. axis:    yes    4.069753    7.049019    0.000000    40     0.1762
  3. axis:    yes    0.000000    0.000000   16.430586    81     0.2028

  Lengths:   8.139506   8.139506  16.430586
  Angles:   90.000000  90.000000  60.000000

Effective grid spacing dv^(1/3) = 0.1938

     iter     time        total  log10-change:  magmom
                         energy  eigst   dens
iter:   1 15:30:09  -212.421509                  +0.0000
iter:   2 15:30:22  -209.977408  -1.31  -1.35    +0.0000
iter:   3 15:30:36  -211.237231  -1.57  -1.37    +0.0000
iter:   4 15:30:49  -200.335991  -1.06  -1.36    +0.0000
iter:   5 15:31:02  -199.014212  -2.21  -1.77    +0.0000
iter:   6 15:31:15  -198.853824  -2.68  -1.98    +0.0000
iter:   7 15:31:28  -198.782417  -2.49  -2.05    +0.0000
iter:   8 15:31:42  -198.728660c -3.23  -2.20    +0.0000
iter:   9 15:31:55  -198.712661c -3.32  -2.27    +0.0000
iter:  10 15:32:08  -198.651465c -3.39  -2.36    +0.0000
iter:  11 15:32:21  -198.608876c -3.38  -2.50    +0.0000
iter:  12 15:32:35  -198.594685c -3.68  -2.79    +0.0000
iter:  13 15:32:48  -198.594102c -4.43  -3.02    +0.0000
iter:  14 15:33:01  -198.593644c -4.81  -3.06    +0.0000
iter:  15 15:33:14  -198.594113c -4.46  -3.11    +0.0000
iter:  16 15:33:27  -198.595074c -5.00  -3.25    +0.0000
iter:  17 15:33:40  -198.593568c -5.36  -3.20    +0.0000
iter:  18 15:33:54  -198.593392c -5.56  -3.39    +0.0000
iter:  19 15:34:07  -198.593517c -5.53  -3.51    +0.0000
iter:  20 15:34:20  -198.593593c -5.66  -3.63    +0.0000
iter:  21 15:34:33  -198.593697c -5.93  -3.74    +0.0000
iter:  22 15:34:46  -198.593806c -6.16  -3.84    +0.0000
iter:  23 15:34:59  -198.593750c -6.45  -3.81    +0.0000
iter:  24 15:35:13  -198.593740c -6.35  -3.95    +0.0000
iter:  25 15:35:26  -198.593729c -6.85  -4.11c   +0.0000
iter:  26 15:35:39  -198.593707c -6.97  -4.17c   +0.0000
iter:  27 15:35:52  -198.593671c -7.02  -4.28c   +0.0000
iter:  28 15:36:05  -198.593674c -7.57c -4.38c   +0.0000

Converged after 28 iterations.

Dipole moment: (-0.237072, -0.136874, -0.026209) |e|*Ang

Total magnetic moment: (0.000000, 0.000000, 0.000000)
Local magnetic moments:
   0 Rh ( 0.000000,  0.000000,  0.000000)
   1 Rh ( 0.000000,  0.000000, -0.000000)
   2 Rh ( 0.000000,  0.000000,  0.000000)
   3 Rh ( 0.000000,  0.000000, -0.000000)
   4 Rh ( 0.000000,  0.000000, -0.000000)
   5 Rh ( 0.000000,  0.000000,  0.000000)
   6 Rh ( 0.000000,  0.000000,  0.000000)
   7 Rh ( 0.000000,  0.000000,  0.000000)
   8 Rh ( 0.000000,  0.000000,  0.000000)
   9 Rh ( 0.000000,  0.000000, -0.000000)
  10 Rh ( 0.000000,  0.000000, -0.000000)
  11 Rh ( 0.000000,  0.000000, -0.000000)
  12 Rh ( 0.000000,  0.000000,  0.000000)
  13 Rh ( 0.000000,  0.000000, -0.000000)
  14 Rh ( 0.000000,  0.000000,  0.000000)
  15 Rh ( 0.000000,  0.000000, -0.000000)
  16 Rh ( 0.000000,  0.000000, -0.000000)
  17 Rh ( 0.000000,  0.000000,  0.000000)
  18 Rh ( 0.000000,  0.000000,  0.000000)
  19 Rh ( 0.000000,  0.000000, -0.000000)
  20 Rh ( 0.000000,  0.000000, -0.000000)
  21 Rh ( 0.000000,  0.000000, -0.000000)
  22 Rh ( 0.000000,  0.000000,  0.000000)
  23 Rh ( 0.000000,  0.000000, -0.000000)
  24 Rh ( 0.000000,  0.000000, -0.000000)
  25 Rh ( 0.000000,  0.000000, -0.000000)
  26 Rh ( 0.000000,  0.000000,  0.000000)
  27 O  ( 0.000000,  0.000000,  0.000000)
  28 C  ( 0.000000,  0.000000,  0.000000)

Energy contributions relative to reference atoms: (reference = -3516703.949422)

Kinetic:       -173.394785
Potential:      +90.033102
External:        +0.000000
XC:            -112.330041
Entropy (-ST):   -1.683258
Local:           -2.060319
--------------------------
Free energy:   -199.435303
Extrapolated:  -198.593674

Spin contamination: 0.000000 electrons
Showing only first 2 kpts
                      Up                     Down
 Kpt  Band  Eigenvalues  Occupancy  Eigenvalues  Occupancy
  0   205      1.77759    0.56449      1.77759    0.56449
  0   206      1.81219    0.47837      1.81219    0.47837
  0   207      1.82582    0.44451      1.82582    0.44451
  0   208      1.82764    0.44002      1.82764    0.44002

  1   205      1.71386    0.71026      1.71386    0.71026
  1   206      1.72506    0.68669      1.72506    0.68669
  1   207      1.77832    0.56270      1.77832    0.56270
  1   208      1.80433    0.49799      1.80433    0.49799


Fermi level: 1.80353

No gap

Forces in eV/Ang:
  0 Rh   -0.01496   -0.00864    0.47217
  1 Rh    0.00000   -0.03772    0.42625
  2 Rh    0.01496   -0.00864    0.47217
  3 Rh   -0.03267    0.01886    0.42625
  4 Rh    0.03267    0.01886    0.42625
  5 Rh   -0.00000    0.12828    0.30763
  6 Rh    0.00000    0.01728    0.47217
  7 Rh    0.11109   -0.06414    0.30763
  8 Rh   -0.11109   -0.06414    0.30763
  9 Rh    0.00000   -0.08478   -0.15279
 10 Rh    0.00291    0.00168    0.00745
 11 Rh   -0.00291    0.00168    0.00745
 12 Rh    0.02535   -0.01464    0.05326
 13 Rh    0.00000   -0.00336    0.00745
 14 Rh   -0.02535   -0.01464    0.05326
 15 Rh    0.07342    0.04239   -0.15279
 16 Rh   -0.07342    0.04239   -0.15279
 17 Rh    0.00000    0.02927    0.05326
 18 Rh    0.00000    0.00000    2.36951
 19 Rh    0.28825   -0.00998   -0.50690
 20 Rh   -0.28825   -0.00998   -0.50690
 21 Rh    0.13548    0.25463   -0.50690
 22 Rh   -0.00000    0.00000   -0.43448
 23 Rh   -0.13548    0.25463   -0.50690
 24 Rh   -0.15277   -0.24464   -0.50690
 25 Rh    0.15277   -0.24464   -0.50690
 26 Rh    0.00000    0.00000   -0.39356
 27 O    -0.00000   -0.00000    0.52433
 28 C     0.00000   -0.00000   -2.36302

System changes: positions 

Initializing position-dependent things.

Density initialized from wave functions
                                           
                                           
                                           
                                           
                                           
                                           
                                           
       O                                   
                Rh     Rh     Rh           
       C                                   
            Rh   RRh    RRh    Rh          
       Rh    RRh   RRh    Rh               
                                           
        Rh     Rh   RRh    Rh    Rh        
                                           
                Rh    Rh     Rh            
           Rh    Rh     Rh                 
                                           
                                           
                                           
                                           

Positions:
   0 Rh     1.356584    0.783224    6.000000    ( 0.0000,  0.0000,  0.0000)
   1 Rh     4.069753    0.783224    6.000000    ( 0.0000,  0.0000,  0.0000)
   2 Rh     6.782922    0.783224    6.000000    ( 0.0000,  0.0000,  0.0000)
   3 Rh     2.713169    3.132897    6.000000    ( 0.0000,  0.0000,  0.0000)
   4 Rh     5.426337    3.132897    6.000000    ( 0.0000,  0.0000,  0.0000)
   5 Rh     8.139506    3.132897    6.000000    ( 0.0000,  0.0000,  0.0000)
   6 Rh     4.069753    5.482570    6.000000    ( 0.0000,  0.0000,  0.0000)
   7 Rh     6.782922    5.482570    6.000000    ( 0.0000,  0.0000,  0.0000)
   8 Rh     9.496091    5.482570    6.000000    ( 0.0000,  0.0000,  0.0000)
   9 Rh    -0.000000    1.566449    8.215293    ( 0.0000,  0.0000,  0.0000)
  10 Rh     2.713169    1.566449    8.215293    ( 0.0000,  0.0000,  0.0000)
  11 Rh     5.426337    1.566449    8.215293    ( 0.0000,  0.0000,  0.0000)
  12 Rh     1.356584    3.916122    8.215293    ( 0.0000,  0.0000,  0.0000)
  13 Rh     4.069753    3.916122    8.215293    ( 0.0000,  0.0000,  0.0000)
  14 Rh     6.782922    3.916122    8.215293    ( 0.0000,  0.0000,  0.0000)
  15 Rh     2.713169    6.265795    8.215293    ( 0.0000,  0.0000,  0.0000)
  16 Rh     5.426337    6.265795    8.215293    ( 0.0000,  0.0000,  0.0000)
  17 Rh     8.139506    6.265795    8.215293    ( 0.0000,  0.0000,  0.0000)
  18 Rh     0.000000    0.000000   10.430586    ( 0.0000,  0.0000,  0.0000)
  19 Rh     2.713169    0.000000   10.430586    ( 0.0000,  0.0000,  0.0000)
  20 Rh     5.426337    0.000000   10.430586    ( 0.0000,  0.0000,  0.0000)
  21 Rh     1.356584    2.349673   10.430586    ( 0.0000,  0.0000,  0.0000)
  22 Rh     4.069753    2.349673   10.430586    ( 0.0000,  0.0000,  0.0000)
  23 Rh     6.782922    2.349673   10.430586    ( 0.0000,  0.0000,  0.0000)
  24 Rh     2.713169    4.699346   10.430586    ( 0.0000,  0.0000,  0.0000)
  25 Rh     5.426337    4.699346   10.430586    ( 0.0000,  0.0000,  0.0000)
  26 Rh     8.139506    4.699346   10.430586    ( 0.0000,  0.0000,  0.0000)
  27 O     -0.000000   -0.000000   13.667235    ( 0.0000,  0.0000,  0.0000)
  28 C      0.000000   -0.000000   12.039744    ( 0.0000,  0.0000,  0.0000)

Unit cell:
           periodic     x           y           z      points  spacing
  1. axis:    yes    8.139506    0.000000    0.000000    40     0.1762
  2. axis:    yes    4.069753    7.049019    0.000000    40     0.1762
  3. axis:    yes    0.000000    0.000000   16.430586    81     0.2028

  Lengths:   8.139506   8.139506  16.430586
  Angles:   90.000000  90.000000  60.000000

Effective grid spacing dv^(1/3) = 0.1938

     iter     time        total  log10-change:  magmom
                         energy  eigst   dens
iter:   1 15:36:25  -230.554079  +0.09           -0.0000
iter:   2 15:36:38  -248.563695  -0.97  -1.41    +0.0000
iter:   3 15:36:52  -216.855450  -1.13  -1.19    -0.0000
iter:   4 15:37:05  -201.121941  -1.49  -1.43    -0.0000
iter:   5 15:37:18  -195.962674  -2.03  -1.65    -0.0000
iter:   6 15:37:31  -195.630852  -2.67  -2.05    -0.0000
iter:   7 15:37:45  -195.120686  -2.02  -2.05    -0.0000
iter:   8 15:37:58  -194.676927  -3.14  -2.13    -0.0000
iter:   9 15:38:11  -194.600930  -3.09  -2.49    -0.0000
iter:  10 15:38:24  -194.539697c -3.27  -2.35    -0.0000
iter:  11 15:38:37  -194.611793c -3.27  -2.35    -0.0000
iter:  12 15:38:51  -194.342597  -3.62  -2.26    -0.0000
iter:  13 15:39:04  -194.334864  -4.01  -2.88    -0.0000
iter:  14 15:39:17  -194.333351c -4.60  -3.02    -0.0000
iter:  15 15:39:30  -194.333447c -4.77  -3.11    -0.0000
iter:  16 15:39:44  -194.334486c -4.95  -3.21    -0.0000
iter:  17 15:39:57  -194.337618c -4.86  -3.34    -0.0000
iter:  18 15:40:10  -194.334773c -5.00  -3.13    -0.0000
iter:  19 15:40:23  -194.334082c -5.43  -3.39    -0.0000
iter:  20 15:40:36  -194.333964c -5.86  -3.62    -0.0000
iter:  21 15:40:50  -194.333863c -5.68  -3.75    -0.0000
iter:  22 15:41:03  -194.333870c -6.18  -4.05c   -0.0000
iter:  23 15:41:16  -194.333900c -6.29  -4.08c   -0.0000
iter:  24 15:41:29  -194.333912c -6.77  -4.06c   -0.0000
iter:  25 15:41:42  -194.333911c -6.97  -4.04c   -0.0000
iter:  26 15:41:56  -194.333910c -6.70  -4.14c   -0.0000
iter:  27 15:42:09  -194.333922c -6.76  -4.28c   -0.0000
iter:  28 15:42:22  -194.333930c -7.28  -4.34c   -0.0000
iter:  29 15:42:35  -194.333926c -7.40  -4.32c   -0.0000
iter:  30 15:42:48  -194.333937c -7.68c -4.35c   -0.0000

Converged after 30 iterations.

Dipole moment: (-0.260231, -0.150244, -0.985376) |e|*Ang

Total magnetic moment: (0.000000, 0.000000, -0.000000)
Local magnetic moments:
   0 Rh ( 0.000000,  0.000000, -0.000000)
   1 Rh ( 0.000000,  0.000000,  0.000000)
   2 Rh ( 0.000000,  0.000000, -0.000000)
   3 Rh ( 0.000000,  0.000000,  0.000000)
   4 Rh ( 0.000000,  0.000000,  0.000000)
   5 Rh ( 0.000000,  0.000000,  0.000000)
   6 Rh ( 0.000000,  0.000000, -0.000000)
   7 Rh ( 0.000000,  0.000000,  0.000000)
   8 Rh ( 0.000000,  0.000000,  0.000000)
   9 Rh ( 0.000000,  0.000000,  0.000000)
  10 Rh ( 0.000000,  0.000000, -0.000000)
  11 Rh ( 0.000000,  0.000000, -0.000000)
  12 Rh ( 0.000000,  0.000000,  0.000000)
  13 Rh ( 0.000000,  0.000000, -0.000000)
  14 Rh ( 0.000000,  0.000000,  0.000000)
  15 Rh ( 0.000000,  0.000000,  0.000000)
  16 Rh ( 0.000000,  0.000000,  0.000000)
  17 Rh ( 0.000000,  0.000000,  0.000000)
  18 Rh ( 0.000000,  0.000000, -0.000000)
  19 Rh ( 0.000000,  0.000000, -0.000000)
  20 Rh ( 0.000000,  0.000000, -0.000000)
  21 Rh ( 0.000000,  0.000000, -0.000000)
  22 Rh ( 0.000000,  0.000000, -0.000000)
  23 Rh ( 0.000000,  0.000000, -0.000000)
  24 Rh ( 0.000000,  0.000000, -0.000000)
  25 Rh ( 0.000000,  0.000000, -0.000000)
  26 Rh ( 0.000000,  0.000000,  0.000000)
  27 O  ( 0.000000,  0.000000,  0.000000)
  28 C  ( 0.000000,  0.000000, -0.000000)

Energy contributions relative to reference atoms: (reference = -3516703.949422)

Kinetic:       -167.847255
Potential:      +87.227215
External:        +0.000000
XC:            -110.585926
Entropy (-ST):   -1.679504
Local:           -2.288219
--------------------------
Free energy:   -195.173689
Extrapolated:  -194.333937

Spin contamination: 0.000000 electrons
Showing only first 2 kpts
                      Up                     Down
 Kpt  Band  Eigenvalues  Occupancy  Eigenvalues  Occupancy
  0   205      1.41179    0.55750      1.41179    0.55750
  0   206      1.44416    0.47685      1.44416    0.47685
  0   207      1.46067    0.43590      1.46067    0.43590
  0   208      1.47090    0.41095      1.47090    0.41095

  1   205      1.36332    0.67165      1.36332    0.67165
  1   206      1.36995    0.65688      1.36995    0.65688
  1   207      1.40081    0.58438      1.40081    0.58438
  1   208      1.43605    0.49709      1.43605    0.49709


Fermi level: 1.43489

No gap

Forces in eV/Ang:
  0 Rh   -0.01361   -0.00786    0.47382
  1 Rh    0.00000   -0.03896    0.42889
  2 Rh    0.01361   -0.00786    0.47382
  3 Rh   -0.03374    0.01948    0.42889
  4 Rh    0.03374    0.01948    0.42889
  5 Rh    0.00000    0.20680    0.27190
  6 Rh   -0.00000    0.01571    0.47382
  7 Rh    0.17909   -0.10340    0.27190
  8 Rh   -0.17909   -0.10340    0.27190
  9 Rh    0.00000   -0.01391   -0.41043
 10 Rh   -0.00505   -0.00292   -0.00007
 11 Rh    0.00505   -0.00292   -0.00007
 12 Rh    0.02608   -0.01506    0.04241
 13 Rh    0.00000    0.00583   -0.00007
 14 Rh   -0.02608   -0.01506    0.04241
 15 Rh    0.01205    0.00696   -0.41043
 16 Rh   -0.01205    0.00696   -0.41043
 17 Rh   -0.00000    0.03012    0.04241
 18 Rh    0.00000   -0.00000   -5.49569
 19 Rh    0.42054   -0.01008   -0.45830
 20 Rh   -0.42054   -0.01008   -0.45830
 21 Rh    0.20155    0.36924   -0.45830
 22 Rh   -0.00000   -0.00000   -0.43008
 23 Rh   -0.20155    0.36924   -0.45830
 24 Rh   -0.21900   -0.35916   -0.45830
 25 Rh    0.21900   -0.35916   -0.45830
 26 Rh    0.00000    0.00000   -0.39273
 27 O     0.00000    0.00000   -9.18552
 28 C     0.00000   -0.00000   15.86303

System changes: positions 

Initializing position-dependent things.

Density initialized from wave functions
                                           
                                           
                                           
                                           
                                           
                                           
                                           
       O                                   
                Rh     Rh     Rh           
       C                                   
            Rh   RRh    RRh    Rh          
       Rh    RRh   RRh    Rh               
                                           
        Rh     Rh   RRh    Rh    Rh        
                                           
                Rh    Rh     Rh            
           Rh    Rh     Rh                 
                                           
                                           
                                           
                                           

Positions:
   0 Rh     1.356584    0.783224    6.000000    ( 0.0000,  0.0000,  0.0000)
   1 Rh     4.069753    0.783224    6.000000    ( 0.0000,  0.0000,  0.0000)
   2 Rh     6.782922    0.783224    6.000000    ( 0.0000,  0.0000,  0.0000)
   3 Rh     2.713169    3.132897    6.000000    ( 0.0000,  0.0000,  0.0000)
   4 Rh     5.426337    3.132897    6.000000    ( 0.0000,  0.0000,  0.0000)
   5 Rh     8.139506    3.132897    6.000000    ( 0.0000,  0.0000,  0.0000)
   6 Rh     4.069753    5.482570    6.000000    ( 0.0000,  0.0000,  0.0000)
   7 Rh     6.782922    5.482570    6.000000    ( 0.0000,  0.0000,  0.0000)
   8 Rh     9.496091    5.482570    6.000000    ( 0.0000,  0.0000,  0.0000)
   9 Rh    -0.000000    1.566449    8.215293    ( 0.0000,  0.0000,  0.0000)
  10 Rh     2.713169    1.566449    8.215293    ( 0.0000,  0.0000,  0.0000)
  11 Rh     5.426337    1.566449    8.215293    ( 0.0000,  0.0000,  0.0000)
  12 Rh     1.356584    3.916122    8.215293    ( 0.0000,  0.0000,  0.0000)
  13 Rh     4.069753    3.916122    8.215293    ( 0.0000,  0.0000,  0.0000)
  14 Rh     6.782922    3.916122    8.215293    ( 0.0000,  0.0000,  0.0000)
  15 Rh     2.713169    6.265795    8.215293    ( 0.0000,  0.0000,  0.0000)
  16 Rh     5.426337    6.265795    8.215293    ( 0.0000,  0.0000,  0.0000)
  17 Rh     8.139506    6.265795    8.215293    ( 0.0000,  0.0000,  0.0000)
  18 Rh     0.000000    0.000000   10.430586    ( 0.0000,  0.0000,  0.0000)
  19 Rh     2.713169    0.000000   10.430586    ( 0.0000,  0.0000,  0.0000)
  20 Rh     5.426337    0.000000   10.430586    ( 0.0000,  0.0000,  0.0000)
  21 Rh     1.356584    2.349673   10.430586    ( 0.0000,  0.0000,  0.0000)
  22 Rh     4.069753    2.349673   10.430586    ( 0.0000,  0.0000,  0.0000)
  23 Rh     6.782922    2.349673   10.430586    ( 0.0000,  0.0000,  0.0000)
  24 Rh     2.713169    4.699346   10.430586    ( 0.0000,  0.0000,  0.0000)
  25 Rh     5.426337    4.699346   10.430586    ( 0.0000,  0.0000,  0.0000)
  26 Rh     8.139506    4.699346   10.430586    ( 0.0000,  0.0000,  0.0000)
  27 O     -0.000000   -0.000000   13.570341    ( 0.0000,  0.0000,  0.0000)
  28 C      0.000000   -0.000000   12.391115    ( 0.0000,  0.0000,  0.0000)

Unit cell:
           periodic     x           y           z      points  spacing
  1. axis:    yes    8.139506    0.000000    0.000000    40     0.1762
  2. axis:    yes    4.069753    7.049019    0.000000    40     0.1762
  3. axis:    yes    0.000000    0.000000   16.430586    81     0.2028

  Lengths:   8.139506   8.139506  16.430586
  Angles:   90.000000  90.000000  60.000000

Effective grid spacing dv^(1/3) = 0.1938

     iter     time        total  log10-change:  magmom
                         energy  eigst   dens
iter:   1 15:43:08  -206.756214  -1.14           +0.0000
iter:   2 15:43:21  -203.912723  -1.75  -1.77    +0.0000
iter:   3 15:43:35  -222.560796  -1.54  -1.74    +0.0000
iter:   4 15:43:48  -200.339325  -2.02  -1.36    +0.0000
iter:   5 15:44:01  -199.931149  -2.99  -2.09    +0.0000
iter:   6 15:44:14  -199.374794  -2.81  -2.24    +0.0000
iter:   7 15:44:27  -198.912267  -2.37  -2.33    +0.0000
iter:   8 15:44:41  -198.774254  -3.16  -2.32    +0.0000
iter:   9 15:44:54  -198.685965  -3.28  -2.48    +0.0000
iter:  10 15:45:07  -198.682811c -3.59  -2.76    +0.0000
iter:  11 15:45:20  -198.653357c -3.82  -2.65    +0.0000
iter:  12 15:45:34  -198.645473c -4.34  -2.85    -0.0000
iter:  13 15:45:47  -198.640102c -4.26  -2.97    -0.0000
iter:  14 15:46:00  -198.639159c -4.70  -3.23    -0.0000
iter:  15 15:46:13  -198.638774c -5.22  -3.32    -0.0000
iter:  16 15:46:26  -198.638675c -5.10  -3.35    -0.0000
iter:  17 15:46:40  -198.639506c -5.25  -3.47    -0.0000
iter:  18 15:46:53  -198.638698c -5.62  -3.37    -0.0000
iter:  19 15:47:06  -198.638527c -5.94  -3.62    -0.0000
iter:  20 15:47:19  -198.638487c -6.19  -3.79    -0.0000
iter:  21 15:47:32  -198.638477c -5.89  -3.88    -0.0000
iter:  22 15:47:46  -198.638533c -6.35  -4.00c   -0.0000
iter:  23 15:47:59  -198.638485c -6.93  -3.99    -0.0000
iter:  24 15:48:12  -198.638479c -6.94  -4.06c   -0.0000
iter:  25 15:48:25  -198.638448c -6.70  -4.11c   -0.0000
iter:  26 15:48:38  -198.638440c -6.97  -4.29c   -0.0000
iter:  27 15:48:52  -198.638448c -7.32  -4.35c   -0.0000
iter:  28 15:49:05  -198.638468c -7.21  -4.36c   -0.0000
iter:  29 15:49:18  -198.638515c -6.93  -4.30c   -0.0000
iter:  30 15:49:31  -198.638475c -7.35  -4.18c   -0.0000
iter:  31 15:49:44  -198.638473c -7.76c -4.59c   -0.0000

Converged after 31 iterations.

Dipole moment: (-0.240178, -0.138667, -0.104474) |e|*Ang

Total magnetic moment: (0.000000, 0.000000, -0.000000)
Local magnetic moments:
   0 Rh ( 0.000000,  0.000000,  0.000000)
   1 Rh ( 0.000000,  0.000000, -0.000000)
   2 Rh ( 0.000000,  0.000000,  0.000000)
   3 Rh ( 0.000000,  0.000000, -0.000000)
   4 Rh ( 0.000000,  0.000000, -0.000000)
   5 Rh ( 0.000000,  0.000000, -0.000000)
   6 Rh ( 0.000000,  0.000000,  0.000000)
   7 Rh ( 0.000000,  0.000000, -0.000000)
   8 Rh ( 0.000000,  0.000000, -0.000000)
   9 Rh ( 0.000000,  0.000000,  0.000000)
  10 Rh ( 0.000000,  0.000000, -0.000000)
  11 Rh ( 0.000000,  0.000000, -0.000000)
  12 Rh ( 0.000000,  0.000000, -0.000000)
  13 Rh ( 0.000000,  0.000000, -0.000000)
  14 Rh ( 0.000000,  0.000000, -0.000000)
  15 Rh ( 0.000000,  0.000000,  0.000000)
  16 Rh ( 0.000000,  0.000000,  0.000000)
  17 Rh ( 0.000000,  0.000000, -0.000000)
  18 Rh ( 0.000000,  0.000000, -0.000000)
  19 Rh ( 0.000000,  0.000000, -0.000000)
  20 Rh ( 0.000000,  0.000000, -0.000000)
  21 Rh ( 0.000000,  0.000000, -0.000000)
  22 Rh ( 0.000000,  0.000000, -0.000000)
  23 Rh ( 0.000000,  0.000000, -0.000000)
  24 Rh ( 0.000000,  0.000000, -0.000000)
  25 Rh ( 0.000000,  0.000000, -0.000000)
  26 Rh ( 0.000000,  0.000000, -0.000000)
  27 O  ( 0.000000,  0.000000, -0.000000)
  28 C  ( 0.000000,  0.000000,  0.000000)

Energy contributions relative to reference atoms: (reference = -3516703.949422)

Kinetic:       -174.809164
Potential:      +91.125759
External:        +0.000000
XC:            -111.996278
Entropy (-ST):   -1.682658
Local:           -2.117461
--------------------------
Free energy:   -199.479802
Extrapolated:  -198.638473

Spin contamination: 0.000000 electrons
Showing only first 2 kpts
                      Up                     Down
 Kpt  Band  Eigenvalues  Occupancy  Eigenvalues  Occupancy
  0   205      1.74777    0.56303      1.74777    0.56303
  0   206      1.78148    0.47911      1.78148    0.47911
  0   207      1.79592    0.44322      1.79592    0.44322
  0   208      1.79803    0.43803      1.79803    0.43803

  1   205      1.68520    0.70664      1.68520    0.70664
  1   206      1.69519    0.68552      1.69519    0.68552
  1   207      1.74714    0.56457      1.74714    0.56457
  1   208      1.77394    0.49794      1.77394    0.49794


Fermi level: 1.77311

No gap

Forces in eV/Ang:
  0 Rh   -0.01536   -0.00887    0.46467
  1 Rh    0.00000   -0.03843    0.41797
  2 Rh    0.01536   -0.00887    0.46467
  3 Rh   -0.03328    0.01921    0.41797
  4 Rh    0.03328    0.01921    0.41797
  5 Rh    0.00000    0.13767    0.29283
  6 Rh    0.00000    0.01773    0.46467
  7 Rh    0.11923   -0.06884    0.29283
  8 Rh   -0.11923   -0.06884    0.29283
  9 Rh   -0.00000   -0.08313   -0.17788
 10 Rh    0.00161    0.00093    0.00348
 11 Rh   -0.00161    0.00093    0.00348
 12 Rh    0.02651   -0.01531    0.05267
 13 Rh    0.00000   -0.00186    0.00348
 14 Rh   -0.02651   -0.01531    0.05267
 15 Rh    0.07199    0.04157   -0.17788
 16 Rh   -0.07199    0.04157   -0.17788
 17 Rh    0.00000    0.03061    0.05267
 18 Rh   -0.00000   -0.00000    2.25128
 19 Rh    0.30177   -0.01107   -0.49589
 20 Rh   -0.30177   -0.01107   -0.49589
 21 Rh    0.14130    0.26688   -0.49589
 22 Rh    0.00000   -0.00000   -0.42168
 23 Rh   -0.14130    0.26688   -0.49589
 24 Rh   -0.16047   -0.25581   -0.49589
 25 Rh    0.16047   -0.25581   -0.49589
 26 Rh   -0.00000    0.00000   -0.38011
 27 O     0.00000   -0.00000   -2.05086
 28 C    -0.00000    0.00000    0.44068

System changes: positions 

Initializing position-dependent things.

Density initialized from wave functions
                                           
                                           
                                           
                                           
                                           
                                           
                                           
       O                                   
       C        Rh     Rh     Rh           
            Rh    Rh     Rh                
                 Rh     Rh     Rh          
       Rh    RRh   RRh    Rh               
                                           
        Rh     Rh   RRh    Rh    Rh        
                Rh    Rh     Rh            
                                           
           Rh    Rh     Rh                 
                                           
                                           
                                           
                                           

Positions:
   0 Rh     1.356584    0.783224    6.000000    ( 0.0000,  0.0000,  0.0000)
   1 Rh     4.069753    0.783224    6.000000    ( 0.0000,  0.0000,  0.0000)
   2 Rh     6.782922    0.783224    6.000000    ( 0.0000,  0.0000,  0.0000)
   3 Rh     2.713169    3.132897    6.000000    ( 0.0000,  0.0000,  0.0000)
   4 Rh     5.426337    3.132897    6.000000    ( 0.0000,  0.0000,  0.0000)
   5 Rh     8.139506    3.132897    6.000000    ( 0.0000,  0.0000,  0.0000)
   6 Rh     4.069753    5.482570    6.000000    ( 0.0000,  0.0000,  0.0000)
   7 Rh     6.782922    5.482570    6.000000    ( 0.0000,  0.0000,  0.0000)
   8 Rh     9.496091    5.482570    6.000000    ( 0.0000,  0.0000,  0.0000)
   9 Rh    -0.000000    1.566449    8.215293    ( 0.0000,  0.0000,  0.0000)
  10 Rh     2.713169    1.566449    8.215293    ( 0.0000,  0.0000,  0.0000)
  11 Rh     5.426337    1.566449    8.215293    ( 0.0000,  0.0000,  0.0000)
  12 Rh     1.356584    3.916122    8.215293    ( 0.0000,  0.0000,  0.0000)
  13 Rh     4.069753    3.916122    8.215293    ( 0.0000,  0.0000,  0.0000)
  14 Rh     6.782922    3.916122    8.215293    ( 0.0000,  0.0000,  0.0000)
  15 Rh     2.713169    6.265795    8.215293    ( 0.0000,  0.0000,  0.0000)
  16 Rh     5.426337    6.265795    8.215293    ( 0.0000,  0.0000,  0.0000)
  17 Rh     8.139506    6.265795    8.215293    ( 0.0000,  0.0000,  0.0000)
  18 Rh     0.000000    0.000000   10.430586    ( 0.0000,  0.0000,  0.0000)
  19 Rh     2.713169    0.000000   10.430586    ( 0.0000,  0.0000,  0.0000)
  20 Rh     5.426337    0.000000   10.430586    ( 0.0000,  0.0000,  0.0000)
  21 Rh     1.356584    2.349673   10.430586    ( 0.0000,  0.0000,  0.0000)
  22 Rh     4.069753    2.349673   10.430586    ( 0.0000,  0.0000,  0.0000)
  23 Rh     6.782922    2.349673   10.430586    ( 0.0000,  0.0000,  0.0000)
  24 Rh     2.713169    4.699346   10.430586    ( 0.0000,  0.0000,  0.0000)
  25 Rh     5.426337    4.699346   10.430586    ( 0.0000,  0.0000,  0.0000)
  26 Rh     8.139506    4.699346   10.430586    ( 0.0000,  0.0000,  0.0000)
  27 O     -0.000000   -0.000000   13.102654    ( 0.0000,  0.0000,  0.0000)
  28 C     -0.000000   -0.000000   12.277843    ( 0.0000,  0.0000,  0.0000)

Unit cell:
           periodic     x           y           z      points  spacing
  1. axis:    yes    8.139506    0.000000    0.000000    40     0.1762
  2. axis:    yes    4.069753    7.049019    0.000000    40     0.1762
  3. axis:    yes    0.000000    0.000000   16.430586    81     0.2028

  Lengths:   8.139506   8.139506  16.430586
  Angles:   90.000000  90.000000  60.000000

Effective grid spacing dv^(1/3) = 0.1938

     iter     time        total  log10-change:  magmom
                         energy  eigst   dens
iter:   1 15:50:04  -278.675281  -0.99           -0.0000
iter:   2 15:50:18  -306.869478  -0.16  -1.10    -0.0000
iter:   3 15:50:31  -224.742071  -0.52  -1.07    -0.0000
iter:   4 15:50:44  -192.516193  -1.78  -1.34    +0.0000
iter:   5 15:50:57  -191.926575  -2.90  -1.66    +0.0000
iter:   6 15:51:11  -187.308969  -2.04  -1.69    +0.0000
iter:   7 15:51:24  -187.670464  -1.53  -2.08    +0.0000
iter:   8 15:51:37  -186.723426  -2.08  -1.80    +0.0000
iter:   9 15:51:50  -185.375561  -2.69  -1.85    +0.0000
iter:  10 15:52:04  -185.313359  -3.32  -2.27    +0.0000
iter:  11 15:52:17  -185.120695  -2.70  -2.31    -0.0000
iter:  12 15:52:30  -185.106276c -3.38  -2.67    -0.0000
iter:  13 15:52:44  -185.088892c -3.86  -2.70    -0.0000
iter:  14 15:52:57  -185.079625c -3.82  -2.81    -0.0000
iter:  15 15:53:10  -185.087046c -4.47  -2.99    -0.0000
iter:  16 15:53:23  -185.076844c -4.47  -2.89    -0.0000
iter:  17 15:53:36  -185.077158c -5.09  -3.25    -0.0000
iter:  18 15:53:50  -185.076182c -4.94  -3.27    -0.0000
iter:  19 15:54:03  -185.076140c -4.89  -3.44    -0.0000
iter:  20 15:54:16  -185.076148c -5.68  -3.58    -0.0000
iter:  21 15:54:30  -185.076663c -5.63  -3.64    -0.0000
iter:  22 15:54:43  -185.076673c -5.50  -3.57    -0.0000
iter:  23 15:54:56  -185.076647c -6.15  -3.64    -0.0000
iter:  24 15:55:09  -185.076676c -6.07  -3.73    -0.0000
iter:  25 15:55:23  -185.076639c -6.01  -3.74    -0.0000
iter:  26 15:55:36  -185.076574c -6.10  -3.85    +0.0000
iter:  27 15:55:49  -185.076572c -6.82  -4.16c   +0.0000
iter:  28 15:56:02  -185.076579c -6.84  -4.19c   +0.0000
iter:  29 15:56:16  -185.076571c -7.17  -4.21c   +0.0000
iter:  30 15:56:29  -185.076582c -6.90  -4.48c   +0.0000
iter:  31 15:56:42  -185.076584c -7.52c -4.51c   +0.0000

Converged after 31 iterations.

Dipole moment: (-0.235700, -0.136081, 0.432315) |e|*Ang

Total magnetic moment: (0.000000, 0.000000, 0.000000)
Local magnetic moments:
   0 Rh ( 0.000000,  0.000000,  0.000000)
   1 Rh ( 0.000000,  0.000000,  0.000000)
   2 Rh ( 0.000000,  0.000000,  0.000000)
   3 Rh ( 0.000000,  0.000000,  0.000000)
   4 Rh ( 0.000000,  0.000000,  0.000000)
   5 Rh ( 0.000000,  0.000000,  0.000000)
   6 Rh ( 0.000000,  0.000000,  0.000000)
   7 Rh ( 0.000000,  0.000000,  0.000000)
   8 Rh ( 0.000000,  0.000000,  0.000000)
   9 Rh ( 0.000000,  0.000000,  0.000000)
  10 Rh ( 0.000000,  0.000000, -0.000000)
  11 Rh ( 0.000000,  0.000000, -0.000000)
  12 Rh ( 0.000000,  0.000000, -0.000000)
  13 Rh ( 0.000000,  0.000000, -0.000000)
  14 Rh ( 0.000000,  0.000000, -0.000000)
  15 Rh ( 0.000000,  0.000000,  0.000000)
  16 Rh ( 0.000000,  0.000000,  0.000000)
  17 Rh ( 0.000000,  0.000000, -0.000000)
  18 Rh ( 0.000000,  0.000000,  0.000000)
  19 Rh ( 0.000000,  0.000000, -0.000000)
  20 Rh ( 0.000000,  0.000000, -0.000000)
  21 Rh ( 0.000000,  0.000000, -0.000000)
  22 Rh ( 0.000000,  0.000000, -0.000000)
  23 Rh ( 0.000000,  0.000000, -0.000000)
  24 Rh ( 0.000000,  0.000000, -0.000000)
  25 Rh ( 0.000000,  0.000000, -0.000000)
  26 Rh ( 0.000000,  0.000000, -0.000000)
  27 O  ( 0.000000,  0.000000, -0.000000)
  28 C  ( 0.000000,  0.000000, -0.000000)

Energy contributions relative to reference atoms: (reference = -3516703.949422)

Kinetic:        -71.985711
Potential:      +17.065037
External:        +0.000000
XC:            -127.095928
Entropy (-ST):   -1.681253
Local:           -2.219356
--------------------------
Free energy:   -185.917210
Extrapolated:  -185.076584

Spin contamination: 0.000000 electrons
Showing only first 2 kpts
                      Up                     Down
 Kpt  Band  Eigenvalues  Occupancy  Eigenvalues  Occupancy
  0   205      1.93806    0.55893      1.93806    0.55893
  0   206      1.97653    0.46311      1.97653    0.46311
  0   207      1.98568    0.44044      1.98568    0.44044
  0   208      1.98834    0.43389      1.98834    0.43389

  1   205      1.87191    0.71062      1.87191    0.71062
  1   206      1.88271    0.68791      1.88271    0.68791
  1   207      1.93975    0.55476      1.93975    0.55476
  1   208      1.95526    0.51622      1.95526    0.51622


Fermi level: 1.96174

No gap

Forces in eV/Ang:
  0 Rh   -0.01843   -0.01064    0.45708
  1 Rh    0.00000   -0.03888    0.40875
  2 Rh    0.01843   -0.01064    0.45708
  3 Rh   -0.03367    0.01944    0.40875
  4 Rh    0.03367    0.01944    0.40875
  5 Rh    0.00000    0.13116    0.29084
  6 Rh   -0.00000    0.02128    0.45708
  7 Rh    0.11359   -0.06558    0.29084
  8 Rh   -0.11359   -0.06558    0.29084
  9 Rh   -0.00000   -0.04789   -0.22979
 10 Rh   -0.01681   -0.00970    0.00336
 11 Rh    0.01681   -0.00970    0.00336
 12 Rh    0.01618   -0.00934    0.03676
 13 Rh    0.00000    0.01941    0.00336
 14 Rh   -0.01618   -0.00934    0.03676
 15 Rh    0.04147    0.02395   -0.22979
 16 Rh   -0.04147    0.02395   -0.22979
 17 Rh   -0.00000    0.01868    0.03676
 18 Rh    0.00000   -0.00000   -1.08145
 19 Rh    0.26975   -0.00250   -0.51305
 20 Rh   -0.26975   -0.00250   -0.51305
 21 Rh    0.13271    0.23486   -0.51305
 22 Rh    0.00000   -0.00000   -0.41460
 23 Rh   -0.13271    0.23486   -0.51305
 24 Rh   -0.13704   -0.23236   -0.51305
 25 Rh    0.13704   -0.23236   -0.51305
 26 Rh   -0.00000    0.00000   -0.36732
 27 O     0.00000    0.00000  122.83528
 28 C     0.00000    0.00000 -120.74046

System changes: positions 

Initializing position-dependent things.

Density initialized from wave functions
                                           
                                           
                                           
                                           
                                           
                                           
                                           
       O                                   
                Rh     Rh     Rh           
       C    Rh    Rh     Rh                
                 Rh     Rh     Rh          
       Rh    RRh   RRh    Rh               
                                           
        Rh     Rh   RRh    Rh    Rh        
                Rh    Rh     Rh            
                                           
           Rh    Rh     Rh                 
                                           
                                           
                                           
                                           

Positions:
   0 Rh     1.356584    0.783224    6.000000    ( 0.0000,  0.0000,  0.0000)
   1 Rh     4.069753    0.783224    6.000000    ( 0.0000,  0.0000,  0.0000)
   2 Rh     6.782922    0.783224    6.000000    ( 0.0000,  0.0000,  0.0000)
   3 Rh     2.713169    3.132897    6.000000    ( 0.0000,  0.0000,  0.0000)
   4 Rh     5.426337    3.132897    6.000000    ( 0.0000,  0.0000,  0.0000)
   5 Rh     8.139506    3.132897    6.000000    ( 0.0000,  0.0000,  0.0000)
   6 Rh     4.069753    5.482570    6.000000    ( 0.0000,  0.0000,  0.0000)
   7 Rh     6.782922    5.482570    6.000000    ( 0.0000,  0.0000,  0.0000)
   8 Rh     9.496091    5.482570    6.000000    ( 0.0000,  0.0000,  0.0000)
   9 Rh    -0.000000    1.566449    8.215293    ( 0.0000,  0.0000,  0.0000)
  10 Rh     2.713169    1.566449    8.215293    ( 0.0000,  0.0000,  0.0000)
  11 Rh     5.426337    1.566449    8.215293    ( 0.0000,  0.0000,  0.0000)
  12 Rh     1.356584    3.916122    8.215293    ( 0.0000,  0.0000,  0.0000)
  13 Rh     4.069753    3.916122    8.215293    ( 0.0000,  0.0000,  0.0000)
  14 Rh     6.782922    3.916122    8.215293    ( 0.0000,  0.0000,  0.0000)
  15 Rh     2.713169    6.265795    8.215293    ( 0.0000,  0.0000,  0.0000)
  16 Rh     5.426337    6.265795    8.215293    ( 0.0000,  0.0000,  0.0000)
  17 Rh     8.139506    6.265795    8.215293    ( 0.0000,  0.0000,  0.0000)
  18 Rh     0.000000    0.000000   10.430586    ( 0.0000,  0.0000,  0.0000)
  19 Rh     2.713169    0.000000   10.430586    ( 0.0000,  0.0000,  0.0000)
  20 Rh     5.426337    0.000000   10.430586    ( 0.0000,  0.0000,  0.0000)
  21 Rh     1.356584    2.349673   10.430586    ( 0.0000,  0.0000,  0.0000)
  22 Rh     4.069753    2.349673   10.430586    ( 0.0000,  0.0000,  0.0000)
  23 Rh     6.782922    2.349673   10.430586    ( 0.0000,  0.0000,  0.0000)
  24 Rh     2.713169    4.699346   10.430586    ( 0.0000,  0.0000,  0.0000)
  25 Rh     5.426337    4.699346   10.430586    ( 0.0000,  0.0000,  0.0000)
  26 Rh     8.139506    4.699346   10.430586    ( 0.0000,  0.0000,  0.0000)
  27 O     -0.000000   -0.000000   13.152980    ( 0.0000,  0.0000,  0.0000)
  28 C     -0.000000   -0.000000   11.871935    ( 0.0000,  0.0000,  0.0000)

Unit cell:
           periodic     x           y           z      points  spacing
  1. axis:    yes    8.139506    0.000000    0.000000    40     0.1762
  2. axis:    yes    4.069753    7.049019    0.000000    40     0.1762
  3. axis:    yes    0.000000    0.000000   16.430586    81     0.2028

  Lengths:   8.139506   8.139506  16.430586
  Angles:   90.000000  90.000000  60.000000

Effective grid spacing dv^(1/3) = 0.1938

     iter     time        total  log10-change:  magmom
                         energy  eigst   dens
iter:   1 15:57:02  -222.195435  +0.24           +0.0000
iter:   2 15:57:15  -224.897611  -1.06  -1.54    -0.0000
iter:   3 15:57:28  -211.714271  -1.75  -1.38    -0.0000
iter:   4 15:57:41  -203.116423  -1.44  -1.68    +0.0000
iter:   5 15:57:55  -196.940939  -1.31  -1.65    +0.0000
iter:   6 15:58:08  -196.212373  -1.98  -1.91    +0.0000
iter:   7 15:58:21  -195.311453  -1.74  -2.13    +0.0000
iter:   8 15:58:35  -195.175755  -2.68  -2.34    +0.0000
iter:   9 15:58:48  -194.900594  -2.44  -2.29    +0.0000
iter:  10 15:59:01  -194.845534  -3.24  -2.43    +0.0000
iter:  11 15:59:14  -194.833913c -3.53  -2.63    +0.0000
iter:  12 15:59:28  -194.763959c -3.36  -2.54    +0.0000
iter:  13 15:59:41  -194.734061c -3.95  -2.65    +0.0000
iter:  14 15:59:54  -194.732786c -4.64  -2.95    +0.0000
iter:  15 16:00:07  -194.735853c -4.20  -3.03    +0.0000
iter:  16 16:00:20  -194.736897c -4.90  -3.23    +0.0000
iter:  17 16:00:34  -194.735932c -4.43  -3.22    +0.0000
iter:  18 16:00:47  -194.735666c -5.17  -3.39    +0.0000
iter:  19 16:01:00  -194.735803c -5.57  -3.57    +0.0000
iter:  20 16:01:13  -194.735538c -5.26  -3.63    +0.0000
iter:  21 16:01:27  -194.735512c -5.89  -3.96    +0.0000
iter:  22 16:01:40  -194.735481c -6.41  -4.06c   +0.0000
iter:  23 16:01:53  -194.735482c -6.54  -4.15c   +0.0000
iter:  24 16:02:06  -194.735517c -6.85  -4.32c   +0.0000
iter:  25 16:02:20  -194.735519c -7.04  -4.13c   +0.0000
iter:  26 16:02:33  -194.735502c -7.28  -4.30c   +0.0000
iter:  27 16:02:46  -194.735505c -7.60c -4.55c   +0.0000

Converged after 27 iterations.

Dipole moment: (-0.259170, -0.149632, -0.577407) |e|*Ang

Total magnetic moment: (0.000000, 0.000000, 0.000000)
Local magnetic moments:
   0 Rh ( 0.000000,  0.000000,  0.000000)
   1 Rh ( 0.000000,  0.000000,  0.000000)
   2 Rh ( 0.000000,  0.000000,  0.000000)
   3 Rh ( 0.000000,  0.000000,  0.000000)
   4 Rh ( 0.000000,  0.000000,  0.000000)
   5 Rh ( 0.000000,  0.000000, -0.000000)
   6 Rh ( 0.000000,  0.000000,  0.000000)
   7 Rh ( 0.000000,  0.000000, -0.000000)
   8 Rh ( 0.000000,  0.000000, -0.000000)
   9 Rh ( 0.000000,  0.000000, -0.000000)
  10 Rh ( 0.000000,  0.000000, -0.000000)
  11 Rh ( 0.000000,  0.000000, -0.000000)
  12 Rh ( 0.000000,  0.000000,  0.000000)
  13 Rh ( 0.000000,  0.000000, -0.000000)
  14 Rh ( 0.000000,  0.000000,  0.000000)
  15 Rh ( 0.000000,  0.000000, -0.000000)
  16 Rh ( 0.000000,  0.000000, -0.000000)
  17 Rh ( 0.000000,  0.000000,  0.000000)
  18 Rh ( 0.000000,  0.000000, -0.000000)
  19 Rh ( 0.000000,  0.000000,  0.000000)
  20 Rh ( 0.000000,  0.000000,  0.000000)
  21 Rh ( 0.000000,  0.000000,  0.000000)
  22 Rh ( 0.000000,  0.000000, -0.000000)
  23 Rh ( 0.000000,  0.000000,  0.000000)
  24 Rh ( 0.000000,  0.000000,  0.000000)
  25 Rh ( 0.000000,  0.000000,  0.000000)
  26 Rh ( 0.000000,  0.000000, -0.000000)
  27 O  ( 0.000000,  0.000000, -0.000000)
  28 C  ( 0.000000,  0.000000, -0.000000)

Energy contributions relative to reference atoms: (reference = -3516703.949422)

Kinetic:       -119.495437
Potential:      +47.832236
External:        +0.000000
XC:            -119.646212
Entropy (-ST):   -1.673380
Local:           -2.589402
--------------------------
Free energy:   -195.572196
Extrapolated:  -194.735505

Spin contamination: 0.000000 electrons
Showing only first 2 kpts
                      Up                     Down
 Kpt  Band  Eigenvalues  Occupancy  Eigenvalues  Occupancy
  0   205      1.54629    0.55074      1.54629    0.55074
  0   206      1.58144    0.46311      1.58144    0.46311
  0   207      1.59361    0.43302      1.59361    0.43302
  0   208      1.60705    0.40038      1.60705    0.40038

  1   205      1.49634    0.66890      1.49634    0.66890
  1   206      1.51341    0.63007      1.51341    0.63007
  1   207      1.53477    0.57904      1.53477    0.57904
  1   208      1.56399    0.50666      1.56399    0.50666


Fermi level: 1.56666

No gap

Forces in eV/Ang:
  0 Rh   -0.01394   -0.00805    0.48237
  1 Rh   -0.00000   -0.03518    0.43339
  2 Rh    0.01394   -0.00805    0.48237
  3 Rh   -0.03047    0.01759    0.43339
  4 Rh    0.03047    0.01759    0.43339
  5 Rh    0.00000    0.21715    0.28699
  6 Rh   -0.00000    0.01610    0.48237
  7 Rh    0.18805   -0.10857    0.28699
  8 Rh   -0.18805   -0.10857    0.28699
  9 Rh   -0.00000    0.07121   -0.59721
 10 Rh   -0.02572   -0.01485   -0.00066
 11 Rh    0.02572   -0.01485   -0.00066
 12 Rh    0.01281   -0.00740    0.01600
 13 Rh    0.00000    0.02970   -0.00066
 14 Rh   -0.01281   -0.00740    0.01600
 15 Rh   -0.06167   -0.03560   -0.59721
 16 Rh    0.06167   -0.03560   -0.59721
 17 Rh    0.00000    0.01479    0.01600
 18 Rh   -0.00000   -0.00000  -25.88743
 19 Rh    0.41289    0.00268   -0.49454
 20 Rh   -0.41289    0.00268   -0.49454
 21 Rh    0.20877    0.35623   -0.49454
 22 Rh    0.00000    0.00000   -0.43965
 23 Rh   -0.20877    0.35623   -0.49454
 24 Rh   -0.20412   -0.35892   -0.49454
 25 Rh    0.20412   -0.35892   -0.49454
 26 Rh    0.00000   -0.00000   -0.40101
 27 O     0.00000    0.00000   -5.31770
 28 C     0.00000    0.00000   33.20944

System changes: positions 

Initializing position-dependent things.

Density initialized from wave functions
                                           
                                           
                                           
                                           
                                           
                                           
                                           
       O                                   
                Rh     Rh     Rh           
       C    Rh    Rh     Rh                
                 Rh     Rh     Rh          
       Rh    RRh   RRh    Rh               
                                           
        Rh     Rh   RRh    Rh    Rh        
                                           
                Rh    Rh     Rh            
           Rh    Rh     Rh                 
                                           
                                           
                                           
                                           

Positions:
   0 Rh     1.356584    0.783224    6.000000    ( 0.0000,  0.0000,  0.0000)
   1 Rh     4.069753    0.783224    6.000000    ( 0.0000,  0.0000,  0.0000)
   2 Rh     6.782922    0.783224    6.000000    ( 0.0000,  0.0000,  0.0000)
   3 Rh     2.713169    3.132897    6.000000    ( 0.0000,  0.0000,  0.0000)
   4 Rh     5.426337    3.132897    6.000000    ( 0.0000,  0.0000,  0.0000)
   5 Rh     8.139506    3.132897    6.000000    ( 0.0000,  0.0000,  0.0000)
   6 Rh     4.069753    5.482570    6.000000    ( 0.0000,  0.0000,  0.0000)
   7 Rh     6.782922    5.482570    6.000000    ( 0.0000,  0.0000,  0.0000)
   8 Rh     9.496091    5.482570    6.000000    ( 0.0000,  0.0000,  0.0000)
   9 Rh    -0.000000    1.566449    8.215293    ( 0.0000,  0.0000,  0.0000)
  10 Rh     2.713169    1.566449    8.215293    ( 0.0000,  0.0000,  0.0000)
  11 Rh     5.426337    1.566449    8.215293    ( 0.0000,  0.0000,  0.0000)
  12 Rh     1.356584    3.916122    8.215293    ( 0.0000,  0.0000,  0.0000)
  13 Rh     4.069753    3.916122    8.215293    ( 0.0000,  0.0000,  0.0000)
  14 Rh     6.782922    3.916122    8.215293    ( 0.0000,  0.0000,  0.0000)
  15 Rh     2.713169    6.265795    8.215293    ( 0.0000,  0.0000,  0.0000)
  16 Rh     5.426337    6.265795    8.215293    ( 0.0000,  0.0000,  0.0000)
  17 Rh     8.139506    6.265795    8.215293    ( 0.0000,  0.0000,  0.0000)
  18 Rh     0.000000    0.000000   10.430586    ( 0.0000,  0.0000,  0.0000)
  19 Rh     2.713169    0.000000   10.430586    ( 0.0000,  0.0000,  0.0000)
  20 Rh     5.426337    0.000000   10.430586    ( 0.0000,  0.0000,  0.0000)
  21 Rh     1.356584    2.349673   10.430586    ( 0.0000,  0.0000,  0.0000)
  22 Rh     4.069753    2.349673   10.430586    ( 0.0000,  0.0000,  0.0000)
  23 Rh     6.782922    2.349673   10.430586    ( 0.0000,  0.0000,  0.0000)
  24 Rh     2.713169    4.699346   10.430586    ( 0.0000,  0.0000,  0.0000)
  25 Rh     5.426337    4.699346   10.430586    ( 0.0000,  0.0000,  0.0000)
  26 Rh     8.139506    4.699346   10.430586    ( 0.0000,  0.0000,  0.0000)
  27 O     -0.000000   -0.000000   13.266181    ( 0.0000,  0.0000,  0.0000)
  28 C     -0.000000   -0.000000   12.139848    ( 0.0000,  0.0000,  0.0000)

Unit cell:
           periodic     x           y           z      points  spacing
  1. axis:    yes    8.139506    0.000000    0.000000    40     0.1762
  2. axis:    yes    4.069753    7.049019    0.000000    40     0.1762
  3. axis:    yes    0.000000    0.000000   16.430586    81     0.2028

  Lengths:   8.139506   8.139506  16.430586
  Angles:   90.000000  90.000000  60.000000

Effective grid spacing dv^(1/3) = 0.1938

     iter     time        total  log10-change:  magmom
                         energy  eigst   dens
iter:   1 16:03:06  -200.683086  -1.02           +0.0000
iter:   2 16:03:19  -200.639824  -2.28  -2.11    -0.0000
iter:   3 16:03:32  -200.774919c -2.56  -1.95    -0.0000
iter:   4 16:03:45  -198.912313  -2.35  -1.91    -0.0000
iter:   5 16:03:59  -198.692517  -2.77  -2.35    -0.0000
iter:   6 16:04:12  -198.564260  -3.33  -2.39    -0.0000
iter:   7 16:04:25  -198.499815c -3.22  -2.58    -0.0000
iter:   8 16:04:38  -198.476238c -3.39  -2.74    -0.0000
iter:   9 16:04:52  -198.542303c -3.51  -2.71    -0.0000
iter:  10 16:05:05  -198.440849c -3.92  -2.48    +0.0000
iter:  11 16:05:18  -198.436553c -4.58  -2.98    +0.0000
iter:  12 16:05:31  -198.434158c -4.44  -3.14    +0.0000
iter:  13 16:05:45  -198.433704c -4.64  -3.37    +0.0000
iter:  14 16:05:58  -198.433404c -5.18  -3.42    +0.0000
iter:  15 16:06:11  -198.434469c -4.92  -3.49    +0.0000
iter:  16 16:06:24  -198.436855c -5.19  -3.43    +0.0000
iter:  17 16:06:38  -198.433696c -5.34  -3.21    +0.0000
iter:  18 16:06:51  -198.433711c -5.99  -3.88    +0.0000
iter:  19 16:07:04  -198.433718c -6.38  -3.98    +0.0000
iter:  20 16:07:18  -198.433737c -6.38  -4.07c   +0.0000
iter:  21 16:07:31  -198.433733c -6.71  -4.17c   +0.0000
iter:  22 16:07:44  -198.433785c -6.69  -4.31c   +0.0000
iter:  23 16:07:57  -198.433746c -6.99  -4.05c   +0.0000
iter:  24 16:08:11  -198.433732c -6.90  -4.21c   +0.0000
iter:  25 16:08:24  -198.433735c -7.23  -4.46c   +0.0000
iter:  26 16:08:37  -198.433741c -7.46c -4.49c   +0.0000

Converged after 26 iterations.

Dipole moment: (-0.245591, -0.141792, -0.159306) |e|*Ang

Total magnetic moment: (0.000000, 0.000000, 0.000000)
Local magnetic moments:
   0 Rh ( 0.000000,  0.000000,  0.000000)
   1 Rh ( 0.000000,  0.000000,  0.000000)
   2 Rh ( 0.000000,  0.000000,  0.000000)
   3 Rh ( 0.000000,  0.000000,  0.000000)
   4 Rh ( 0.000000,  0.000000,  0.000000)
   5 Rh ( 0.000000,  0.000000,  0.000000)
   6 Rh ( 0.000000,  0.000000,  0.000000)
   7 Rh ( 0.000000,  0.000000,  0.000000)
   8 Rh ( 0.000000,  0.000000,  0.000000)
   9 Rh ( 0.000000,  0.000000,  0.000000)
  10 Rh ( 0.000000,  0.000000,  0.000000)
  11 Rh ( 0.000000,  0.000000,  0.000000)
  12 Rh ( 0.000000,  0.000000,  0.000000)
  13 Rh ( 0.000000,  0.000000,  0.000000)
  14 Rh ( 0.000000,  0.000000,  0.000000)
  15 Rh ( 0.000000,  0.000000,  0.000000)
  16 Rh ( 0.000000,  0.000000,  0.000000)
  17 Rh ( 0.000000,  0.000000,  0.000000)
  18 Rh ( 0.000000,  0.000000,  0.000000)
  19 Rh ( 0.000000,  0.000000,  0.000000)
  20 Rh ( 0.000000,  0.000000,  0.000000)
  21 Rh ( 0.000000,  0.000000,  0.000000)
  22 Rh ( 0.000000,  0.000000, -0.000000)
  23 Rh ( 0.000000,  0.000000,  0.000000)
  24 Rh ( 0.000000,  0.000000,  0.000000)
  25 Rh ( 0.000000,  0.000000,  0.000000)
  26 Rh ( 0.000000,  0.000000,  0.000000)
  27 O  ( 0.000000,  0.000000,  0.000000)
  28 C  ( 0.000000,  0.000000,  0.000000)

Energy contributions relative to reference atoms: (reference = -3516703.949422)

Kinetic:       -150.361486
Potential:      +71.562660
External:        +0.000000
XC:            -116.606380
Entropy (-ST):   -1.677812
Local:           -2.189629
--------------------------
Free energy:   -199.272647
Extrapolated:  -198.433741

Spin contamination: 0.000000 electrons
Showing only first 2 kpts
                      Up                     Down
 Kpt  Band  Eigenvalues  Occupancy  Eigenvalues  Occupancy
  0   205      1.71749    0.55512      1.71749    0.55512
  0   206      1.75148    0.47042      1.75148    0.47042
  0   207      1.76493    0.43710      1.76493    0.43710
  0   208      1.77152    0.42094      1.77152    0.42094

  1   205      1.66416    0.68020      1.66416    0.68020
  1   206      1.66438    0.67973      1.66438    0.67973
  1   207      1.71233    0.56783      1.71233    0.56783
  1   208      1.73611    0.50880      1.73611    0.50880


Fermi level: 1.73963

No gap

Forces in eV/Ang:
  0 Rh   -0.01729   -0.00998    0.47100
  1 Rh   -0.00000   -0.03846    0.42185
  2 Rh    0.01729   -0.00998    0.47100
  3 Rh   -0.03330    0.01923    0.42185
  4 Rh    0.03330    0.01923    0.42185
  5 Rh    0.00000    0.17541    0.28023
  6 Rh   -0.00000    0.01997    0.47100
  7 Rh    0.15191   -0.08770    0.28023
  8 Rh   -0.15191   -0.08770    0.28023
  9 Rh    0.00000   -0.02201   -0.35712
 10 Rh   -0.01458   -0.00842    0.00059
 11 Rh    0.01458   -0.00842    0.00059
 12 Rh    0.02058   -0.01188    0.04410
 13 Rh    0.00000    0.01684    0.00059
 14 Rh   -0.02058   -0.01188    0.04410
 15 Rh    0.01906    0.01100   -0.35712
 16 Rh   -0.01906    0.01100   -0.35712
 17 Rh    0.00000    0.02376    0.04410
 18 Rh    0.00000    0.00000   -2.83563
 19 Rh    0.32052   -0.00820   -0.51120
 20 Rh   -0.32052   -0.00820   -0.51120
 21 Rh    0.15316    0.28168   -0.51120
 22 Rh    0.00000   -0.00000   -0.43761
 23 Rh   -0.15316    0.28168   -0.51120
 24 Rh   -0.16736   -0.27348   -0.51120
 25 Rh    0.16736   -0.27348   -0.51120
 26 Rh    0.00000    0.00000   -0.39071
 27 O     0.00000    0.00000    4.73053
 28 C    -0.00000    0.00000   -0.72133

System changes: positions 

Initializing position-dependent things.

Density initialized from wave functions
                                           
                                           
                                           
                                           
                                           
                                           
                                           
       O                                   
                Rh     Rh     Rh           
       C                                   
            Rh   RRh    RRh    Rh          
       Rh    RRh   RRh    Rh               
                                           
        Rh     Rh   RRh    Rh    Rh        
                                           
                Rh    Rh     Rh            
           Rh    Rh     Rh                 
                                           
                                           
                                           
                                           

Positions:
   0 Rh     1.356584    0.783224    6.000000    ( 0.0000,  0.0000,  0.0000)
   1 Rh     4.069753    0.783224    6.000000    ( 0.0000,  0.0000,  0.0000)
   2 Rh     6.782922    0.783224    6.000000    ( 0.0000,  0.0000,  0.0000)
   3 Rh     2.713169    3.132897    6.000000    ( 0.0000,  0.0000,  0.0000)
   4 Rh     5.426337    3.132897    6.000000    ( 0.0000,  0.0000,  0.0000)
   5 Rh     8.139506    3.132897    6.000000    ( 0.0000,  0.0000,  0.0000)
   6 Rh     4.069753    5.482570    6.000000    ( 0.0000,  0.0000,  0.0000)
   7 Rh     6.782922    5.482570    6.000000    ( 0.0000,  0.0000,  0.0000)
   8 Rh     9.496091    5.482570    6.000000    ( 0.0000,  0.0000,  0.0000)
   9 Rh    -0.000000    1.566449    8.215293    ( 0.0000,  0.0000,  0.0000)
  10 Rh     2.713169    1.566449    8.215293    ( 0.0000,  0.0000,  0.0000)
  11 Rh     5.426337    1.566449    8.215293    ( 0.0000,  0.0000,  0.0000)
  12 Rh     1.356584    3.916122    8.215293    ( 0.0000,  0.0000,  0.0000)
  13 Rh     4.069753    3.916122    8.215293    ( 0.0000,  0.0000,  0.0000)
  14 Rh     6.782922    3.916122    8.215293    ( 0.0000,  0.0000,  0.0000)
  15 Rh     2.713169    6.265795    8.215293    ( 0.0000,  0.0000,  0.0000)
  16 Rh     5.426337    6.265795    8.215293    ( 0.0000,  0.0000,  0.0000)
  17 Rh     8.139506    6.265795    8.215293    ( 0.0000,  0.0000,  0.0000)
  18 Rh     0.000000    0.000000   10.430586    ( 0.0000,  0.0000,  0.0000)
  19 Rh     2.713169    0.000000   10.430586    ( 0.0000,  0.0000,  0.0000)
  20 Rh     5.426337    0.000000   10.430586    ( 0.0000,  0.0000,  0.0000)
  21 Rh     1.356584    2.349673   10.430586    ( 0.0000,  0.0000,  0.0000)
  22 Rh     4.069753    2.349673   10.430586    ( 0.0000,  0.0000,  0.0000)
  23 Rh     6.782922    2.349673   10.430586    ( 0.0000,  0.0000,  0.0000)
  24 Rh     2.713169    4.699346   10.430586    ( 0.0000,  0.0000,  0.0000)
  25 Rh     5.426337    4.699346   10.430586    ( 0.0000,  0.0000,  0.0000)
  26 Rh     8.139506    4.699346   10.430586    ( 0.0000,  0.0000,  0.0000)
  27 O     -0.000000   -0.000000   13.434535    ( 0.0000,  0.0000,  0.0000)
  28 C     -0.000000   -0.000000   12.299061    ( 0.0000,  0.0000,  0.0000)

Unit cell:
           periodic     x           y           z      points  spacing
  1. axis:    yes    8.139506    0.000000    0.000000    40     0.1762
  2. axis:    yes    4.069753    7.049019    0.000000    40     0.1762
  3. axis:    yes    0.000000    0.000000   16.430586    81     0.2028

  Lengths:   8.139506   8.139506  16.430586
  Angles:   90.000000  90.000000  60.000000

Effective grid spacing dv^(1/3) = 0.1938

     iter     time        total  log10-change:  magmom
                         energy  eigst   dens
iter:   1 16:08:57  -199.157880  -1.62           +0.0000
iter:   2 16:09:10  -200.197569  -2.65  -2.28    +0.0000
iter:   3 16:09:23  -198.824609  -3.11  -1.95    +0.0000
iter:   4 16:09:36  -198.756996  -3.44  -2.65    +0.0000
iter:   5 16:09:50  -198.743920c -4.28  -2.90    +0.0000
iter:   6 16:10:03  -198.729029c -4.26  -3.01    +0.0000
iter:   7 16:10:16  -198.725951c -4.52  -3.21    +0.0000
iter:   8 16:10:29  -198.743395c -4.58  -3.26    +0.0000
iter:   9 16:10:42  -198.726980c -4.40  -2.82    +0.0000
iter:  10 16:10:56  -198.721286c -4.73  -3.07    +0.0000
iter:  11 16:11:09  -198.721135c -5.40  -3.64    +0.0000
iter:  12 16:11:22  -198.720871c -5.61  -3.73    +0.0000
iter:  13 16:11:35  -198.720760c -5.68  -3.93    +0.0000
iter:  14 16:11:48  -198.720857c -5.92  -4.00    +0.0000
iter:  15 16:12:02  -198.720765c -6.29  -3.83    +0.0000
iter:  16 16:12:15  -198.720703c -6.76  -3.94    +0.0000
iter:  17 16:12:28  -198.720717c -6.59  -4.20c   +0.0000
iter:  18 16:12:41  -198.720735c -6.66  -4.46c   +0.0000
iter:  19 16:12:54  -198.720741c -7.40  -4.65c   +0.0000
iter:  20 16:13:08  -198.720740c -7.44c -4.66c   +0.0000

Converged after 20 iterations.

Dipole moment: (-0.241433, -0.139392, -0.070436) |e|*Ang

Total magnetic moment: (0.000000, 0.000000, 0.000000)
Local magnetic moments:
   0 Rh ( 0.000000,  0.000000,  0.000000)
   1 Rh ( 0.000000,  0.000000,  0.000000)
   2 Rh ( 0.000000,  0.000000,  0.000000)
   3 Rh ( 0.000000,  0.000000,  0.000000)
   4 Rh ( 0.000000,  0.000000,  0.000000)
   5 Rh ( 0.000000,  0.000000,  0.000000)
   6 Rh ( 0.000000,  0.000000,  0.000000)
   7 Rh ( 0.000000,  0.000000,  0.000000)
   8 Rh ( 0.000000,  0.000000,  0.000000)
   9 Rh ( 0.000000,  0.000000,  0.000000)
  10 Rh ( 0.000000,  0.000000,  0.000000)
  11 Rh ( 0.000000,  0.000000,  0.000000)
  12 Rh ( 0.000000,  0.000000, -0.000000)
  13 Rh ( 0.000000,  0.000000,  0.000000)
  14 Rh ( 0.000000,  0.000000, -0.000000)
  15 Rh ( 0.000000,  0.000000,  0.000000)
  16 Rh ( 0.000000,  0.000000,  0.000000)
  17 Rh ( 0.000000,  0.000000, -0.000000)
  18 Rh ( 0.000000,  0.000000, -0.000000)
  19 Rh ( 0.000000,  0.000000, -0.000000)
  20 Rh ( 0.000000,  0.000000, -0.000000)
  21 Rh ( 0.000000,  0.000000, -0.000000)
  22 Rh ( 0.000000,  0.000000,  0.000000)
  23 Rh ( 0.000000,  0.000000, -0.000000)
  24 Rh ( 0.000000,  0.000000, -0.000000)
  25 Rh ( 0.000000,  0.000000, -0.000000)
  26 Rh ( 0.000000,  0.000000,  0.000000)
  27 O  ( 0.000000,  0.000000,  0.000000)
  28 C  ( 0.000000,  0.000000, -0.000000)

Energy contributions relative to reference atoms: (reference = -3516703.949422)

Kinetic:       -164.848814
Potential:      +83.134207
External:        +0.000000
XC:            -114.032684
Entropy (-ST):   -1.680812
Local:           -2.133044
--------------------------
Free energy:   -199.561146
Extrapolated:  -198.720740

Spin contamination: 0.000000 electrons
Showing only first 2 kpts
                      Up                     Down
 Kpt  Band  Eigenvalues  Occupancy  Eigenvalues  Occupancy
  0   205      1.75578    0.55995      1.75578    0.55995
  0   206      1.78969    0.47549      1.78969    0.47549
  0   207      1.80368    0.44077      1.80368    0.44077
  0   208      1.80694    0.43276      1.80694    0.43276

  1   205      1.69527    0.69975      1.69527    0.69975
  1   206      1.70261    0.68409      1.70261    0.68409
  1   207      1.75370    0.56507      1.75370    0.56507
  1   208      1.77863    0.50312      1.77863    0.50312


Fermi level: 1.77988

No gap

Forces in eV/Ang:
  0 Rh   -0.01696   -0.00979    0.46806
  1 Rh    0.00000   -0.03891    0.42041
  2 Rh    0.01696   -0.00979    0.46806
  3 Rh   -0.03370    0.01946    0.42041
  4 Rh    0.03370    0.01946    0.42041
  5 Rh   -0.00000    0.15046    0.28842
  6 Rh   -0.00000    0.01958    0.46806
  7 Rh    0.13030   -0.07523    0.28842
  8 Rh   -0.13030   -0.07523    0.28842
  9 Rh    0.00000   -0.06497   -0.23608
 10 Rh   -0.00429   -0.00248   -0.00040
 11 Rh    0.00429   -0.00248   -0.00040
 12 Rh    0.02441   -0.01409    0.04886
 13 Rh    0.00000    0.00496   -0.00040
 14 Rh   -0.02441   -0.01409    0.04886
 15 Rh    0.05627    0.03249   -0.23608
 16 Rh   -0.05627    0.03249   -0.23608
 17 Rh   -0.00000    0.02818    0.04886
 18 Rh   -0.00000   -0.00000    1.13471
 19 Rh    0.30602   -0.01055   -0.49964
 20 Rh   -0.30602   -0.01055   -0.49964
 21 Rh    0.14387    0.27029   -0.49964
 22 Rh    0.00000    0.00000   -0.42281
 23 Rh   -0.14387    0.27029   -0.49964
 24 Rh   -0.16215   -0.25974   -0.49964
 25 Rh    0.16215   -0.25974   -0.49964
 26 Rh   -0.00000    0.00000   -0.37826
 27 O    -0.00000    0.00000    2.67454
 28 C    -0.00000    0.00000   -3.03106

System changes: positions 

Initializing position-dependent things.

Density initialized from wave functions
                                           
                                           
                                           
                                           
                                           
                                           
                                           
       O                                   
                                           
                Rh     Rh     Rh           
       C                                   
            Rh   RRh    RRh    Rh          
       Rh    RRh   RRh    Rh               
                                           
        Rh     Rh   RRh    Rh    Rh        
                                           
                Rh    Rh     Rh            
           Rh    Rh     Rh                 
                                           
                                           
                                           
                                           

Positions:
   0 Rh     1.356584    0.783224    6.000000    ( 0.0000,  0.0000,  0.0000)
   1 Rh     4.069753    0.783224    6.000000    ( 0.0000,  0.0000,  0.0000)
   2 Rh     6.782922    0.783224    6.000000    ( 0.0000,  0.0000,  0.0000)
   3 Rh     2.713169    3.132897    6.000000    ( 0.0000,  0.0000,  0.0000)
   4 Rh     5.426337    3.132897    6.000000    ( 0.0000,  0.0000,  0.0000)
   5 Rh     8.139506    3.132897    6.000000    ( 0.0000,  0.0000,  0.0000)
   6 Rh     4.069753    5.482570    6.000000    ( 0.0000,  0.0000,  0.0000)
   7 Rh     6.782922    5.482570    6.000000    ( 0.0000,  0.0000,  0.0000)
   8 Rh     9.496091    5.482570    6.000000    ( 0.0000,  0.0000,  0.0000)
   9 Rh    -0.000000    1.566449    8.215293    ( 0.0000,  0.0000,  0.0000)
  10 Rh     2.713169    1.566449    8.215293    ( 0.0000,  0.0000,  0.0000)
  11 Rh     5.426337    1.566449    8.215293    ( 0.0000,  0.0000,  0.0000)
  12 Rh     1.356584    3.916122    8.215293    ( 0.0000,  0.0000,  0.0000)
  13 Rh     4.069753    3.916122    8.215293    ( 0.0000,  0.0000,  0.0000)
  14 Rh     6.782922    3.916122    8.215293    ( 0.0000,  0.0000,  0.0000)
  15 Rh     2.713169    6.265795    8.215293    ( 0.0000,  0.0000,  0.0000)
  16 Rh     5.426337    6.265795    8.215293    ( 0.0000,  0.0000,  0.0000)
  17 Rh     8.139506    6.265795    8.215293    ( 0.0000,  0.0000,  0.0000)
  18 Rh     0.000000    0.000000   10.430586    ( 0.0000,  0.0000,  0.0000)
  19 Rh     2.713169    0.000000   10.430586    ( 0.0000,  0.0000,  0.0000)
  20 Rh     5.426337    0.000000   10.430586    ( 0.0000,  0.0000,  0.0000)
  21 Rh     1.356584    2.349673   10.430586    ( 0.0000,  0.0000,  0.0000)
  22 Rh     4.069753    2.349673   10.430586    ( 0.0000,  0.0000,  0.0000)
  23 Rh     6.782922    2.349673   10.430586    ( 0.0000,  0.0000,  0.0000)
  24 Rh     2.713169    4.699346   10.430586    ( 0.0000,  0.0000,  0.0000)
  25 Rh     5.426337    4.699346   10.430586    ( 0.0000,  0.0000,  0.0000)
  26 Rh     8.139506    4.699346   10.430586    ( 0.0000,  0.0000,  0.0000)
  27 O      0.000000    0.000000   14.291888    ( 0.0000,  0.0000,  0.0000)
  28 C      0.000000   -0.000000   11.887460    ( 0.0000,  0.0000,  0.0000)

Unit cell:
           periodic     x           y           z      points  spacing
  1. axis:    yes    8.139506    0.000000    0.000000    40     0.1762
  2. axis:    yes    4.069753    7.049019    0.000000    40     0.1762
  3. axis:    yes    0.000000    0.000000   16.430586    81     0.2028

  Lengths:   8.139506   8.139506  16.430586
  Angles:   90.000000  90.000000  60.000000

Effective grid spacing dv^(1/3) = 0.1938

     iter     time        total  log10-change:  magmom
                         energy  eigst   dens
iter:   1 16:13:28  -246.557853  +0.26           +0.0000
iter:   2 16:13:41  -282.203694  -0.64  -1.27    +0.0000
iter:   3 16:13:54  -205.598103  -1.17  -1.08    +0.0000
iter:   4 16:14:07  -199.459244  -1.14  -1.63    +0.0000
iter:   5 16:14:20  -191.902395  -2.72  -1.55    +0.0000
iter:   6 16:14:34  -191.215793  -3.38  -1.81    +0.0000
iter:   7 16:14:47  -193.497261  -2.09  -1.86    -0.0000
iter:   8 16:15:00  -189.172336  -2.33  -1.62    -0.0000
iter:   9 16:15:13  -188.573011  -2.77  -2.05    -0.0000
iter:  10 16:15:26  -188.419437  -3.36  -2.19    +0.0000
iter:  11 16:15:40  -188.388508c -3.69  -2.41    +0.0000
iter:  12 16:15:53  -188.261833c -3.10  -2.43    +0.0000
iter:  13 16:16:06  -188.236464c -3.68  -2.60    -0.0000
iter:  14 16:16:19  -188.232701c -4.22  -2.71    +0.0000
iter:  15 16:16:33  -188.227514c -4.45  -2.80    +0.0000
iter:  16 16:16:46  -188.277144c -4.07  -2.77    +0.0000
iter:  17 16:16:59  -188.248953c -4.37  -2.67    -0.0000
iter:  18 16:17:12  -188.252639c -4.90  -3.02    +0.0000
iter:  19 16:17:26  -188.246556c -5.00  -3.02    +0.0000
iter:  20 16:17:39  -188.238958c -4.84  -3.20    +0.0000
iter:  21 16:17:52  -188.239399c -5.61  -3.36    +0.0000
iter:  22 16:18:06  -188.237676c -5.41  -3.45    +0.0000
iter:  23 16:18:19  -188.247722c -5.15  -3.44    -0.0000
iter:  24 16:18:32  -188.239343c -5.26  -3.06    -0.0000
iter:  25 16:18:45  -188.239650c -5.48  -3.53    -0.0000
iter:  26 16:18:59  -188.239589c -5.86  -3.53    -0.0000
iter:  27 16:19:12  -188.239668c -5.84  -3.75    -0.0000
iter:  28 16:19:25  -188.239278c -6.45  -4.11c   +0.0000
iter:  29 16:19:38  -188.239244c -6.79  -4.19c   -0.0000
iter:  30 16:19:51  -188.239152c -7.25  -4.37c   -0.0000
iter:  31 16:20:05  -188.239590c -7.05  -4.42c   -0.0000
iter:  32 16:20:18  -188.238722c -7.21  -4.42c   +0.0000
iter:  33 16:20:31  -188.239166c -7.46c -4.27c   +0.0000

Converged after 33 iterations.

Dipole moment: (-0.270622, -0.156244, -1.420356) |e|*Ang

Total magnetic moment: (0.000000, 0.000000, 0.000000)
Local magnetic moments:
   0 Rh ( 0.000000,  0.000000,  0.000000)
   1 Rh ( 0.000000,  0.000000,  0.000000)
   2 Rh ( 0.000000,  0.000000,  0.000000)
   3 Rh ( 0.000000,  0.000000,  0.000000)
   4 Rh ( 0.000000,  0.000000,  0.000000)
   5 Rh ( 0.000000,  0.000000,  0.000000)
   6 Rh ( 0.000000,  0.000000,  0.000000)
   7 Rh ( 0.000000,  0.000000,  0.000000)
   8 Rh ( 0.000000,  0.000000,  0.000000)
   9 Rh ( 0.000000,  0.000000, -0.000000)
  10 Rh ( 0.000000,  0.000000,  0.000000)
  11 Rh ( 0.000000,  0.000000,  0.000000)
  12 Rh ( 0.000000,  0.000000, -0.000000)
  13 Rh ( 0.000000,  0.000000,  0.000000)
  14 Rh ( 0.000000,  0.000000, -0.000000)
  15 Rh ( 0.000000,  0.000000, -0.000000)
  16 Rh ( 0.000000,  0.000000, -0.000000)
  17 Rh ( 0.000000,  0.000000, -0.000000)
  18 Rh ( 0.000000,  0.000000, -0.000000)
  19 Rh ( 0.000000,  0.000000, -0.000000)
  20 Rh ( 0.000000,  0.000000, -0.000000)
  21 Rh ( 0.000000,  0.000000, -0.000000)
  22 Rh ( 0.000000,  0.000000,  0.000000)
  23 Rh ( 0.000000,  0.000000, -0.000000)
  24 Rh ( 0.000000,  0.000000, -0.000000)
  25 Rh ( 0.000000,  0.000000, -0.000000)
  26 Rh ( 0.000000,  0.000000,  0.000000)
  27 O  ( 0.000000,  0.000000,  0.000000)
  28 C  ( 0.000000,  0.000000, -0.000000)

Energy contributions relative to reference atoms: (reference = -3516703.949422)

Kinetic:       -133.778131
Potential:      +61.506446
External:        +0.000000
XC:            -112.473616
Entropy (-ST):   -1.892668
Local:           -2.547530
--------------------------
Free energy:   -189.185500
Extrapolated:  -188.239166

Spin contamination: 0.000000 electrons
Showing only first 2 kpts
                      Up                     Down
 Kpt  Band  Eigenvalues  Occupancy  Eigenvalues  Occupancy
  0   205      1.27175    0.60453      1.27175    0.60453
  0   206      1.29963    0.53633      1.29963    0.53633
  0   207      1.32739    0.46704      1.32739    0.46704
  0   208      1.34065    0.43421      1.34065    0.43421

  1   205      1.20042    0.75724      1.20042    0.75724
  1   206      1.24656    0.66290      1.24656    0.66290
  1   207      1.27473    0.59736      1.27473    0.59736
  1   208      1.29120    0.55722      1.29120    0.55722


Fermi level: 1.31418

No gap

Forces in eV/Ang:
  0 Rh   -0.00073   -0.00042    0.46998
  1 Rh    0.00000   -0.03298    0.42416
  2 Rh    0.00073   -0.00042    0.46998
  3 Rh   -0.02856    0.01649    0.42416
  4 Rh    0.02856    0.01649    0.42416
  5 Rh   -0.00000    0.22060    0.28454
  6 Rh    0.00000    0.00084    0.46998
  7 Rh    0.19104   -0.11030    0.28454
  8 Rh   -0.19104   -0.11030    0.28454
  9 Rh    0.00000    0.05958   -0.51607
 10 Rh    0.00907    0.00524    0.00519
 11 Rh   -0.00907    0.00524    0.00519
 12 Rh    0.02505   -0.01446    0.02600
 13 Rh    0.00000   -0.01047    0.00519
 14 Rh   -0.02505   -0.01446    0.02600
 15 Rh   -0.05160   -0.02979   -0.51607
 16 Rh    0.05160   -0.02979   -0.51607
 17 Rh    0.00000    0.02892    0.02600
 18 Rh   -0.00000   -0.00000  -18.57325
 19 Rh    0.58495    0.00568   -0.48047
 20 Rh   -0.58495    0.00568   -0.48047
 21 Rh    0.29740    0.50374   -0.48047
 22 Rh    0.00000   -0.00000   -0.44936
 23 Rh   -0.29740    0.50374   -0.48047
 24 Rh   -0.28756   -0.50943   -0.48047
 25 Rh    0.28756   -0.50943   -0.48047
 26 Rh    0.00000    0.00000   -0.41823
 27 O     0.00000   -0.00000   -2.02312
 28 C    -0.00000    0.00000   22.25738

System changes: positions 

Initializing position-dependent things.

Density initialized from wave functions
                                           
                                           
                                           
                                           
                                           
                                           
                                           
       O                                   
                Rh     Rh     Rh           
       C                                   
            Rh   RRh    RRh    Rh          
       Rh    RRh   RRh    Rh               
                                           
        Rh     Rh   RRh    Rh    Rh        
                                           
                Rh    Rh     Rh            
           Rh    Rh     Rh                 
                                           
                                           
                                           
                                           

Positions:
   0 Rh     1.356584    0.783224    6.000000    ( 0.0000,  0.0000,  0.0000)
   1 Rh     4.069753    0.783224    6.000000    ( 0.0000,  0.0000,  0.0000)
   2 Rh     6.782922    0.783224    6.000000    ( 0.0000,  0.0000,  0.0000)
   3 Rh     2.713169    3.132897    6.000000    ( 0.0000,  0.0000,  0.0000)
   4 Rh     5.426337    3.132897    6.000000    ( 0.0000,  0.0000,  0.0000)
   5 Rh     8.139506    3.132897    6.000000    ( 0.0000,  0.0000,  0.0000)
   6 Rh     4.069753    5.482570    6.000000    ( 0.0000,  0.0000,  0.0000)
   7 Rh     6.782922    5.482570    6.000000    ( 0.0000,  0.0000,  0.0000)
   8 Rh     9.496091    5.482570    6.000000    ( 0.0000,  0.0000,  0.0000)
   9 Rh    -0.000000    1.566449    8.215293    ( 0.0000,  0.0000,  0.0000)
  10 Rh     2.713169    1.566449    8.215293    ( 0.0000,  0.0000,  0.0000)
  11 Rh     5.426337    1.566449    8.215293    ( 0.0000,  0.0000,  0.0000)
  12 Rh     1.356584    3.916122    8.215293    ( 0.0000,  0.0000,  0.0000)
  13 Rh     4.069753    3.916122    8.215293    ( 0.0000,  0.0000,  0.0000)
  14 Rh     6.782922    3.916122    8.215293    ( 0.0000,  0.0000,  0.0000)
  15 Rh     2.713169    6.265795    8.215293    ( 0.0000,  0.0000,  0.0000)
  16 Rh     5.426337    6.265795    8.215293    ( 0.0000,  0.0000,  0.0000)
  17 Rh     8.139506    6.265795    8.215293    ( 0.0000,  0.0000,  0.0000)
  18 Rh     0.000000    0.000000   10.430586    ( 0.0000,  0.0000,  0.0000)
  19 Rh     2.713169    0.000000   10.430586    ( 0.0000,  0.0000,  0.0000)
  20 Rh     5.426337    0.000000   10.430586    ( 0.0000,  0.0000,  0.0000)
  21 Rh     1.356584    2.349673   10.430586    ( 0.0000,  0.0000,  0.0000)
  22 Rh     4.069753    2.349673   10.430586    ( 0.0000,  0.0000,  0.0000)
  23 Rh     6.782922    2.349673   10.430586    ( 0.0000,  0.0000,  0.0000)
  24 Rh     2.713169    4.699346   10.430586    ( 0.0000,  0.0000,  0.0000)
  25 Rh     5.426337    4.699346   10.430586    ( 0.0000,  0.0000,  0.0000)
  26 Rh     8.139506    4.699346   10.430586    ( 0.0000,  0.0000,  0.0000)
  27 O     -0.000000   -0.000000   13.426413    ( 0.0000,  0.0000,  0.0000)
  28 C     -0.000000   -0.000000   12.263731    ( 0.0000,  0.0000,  0.0000)

Unit cell:
           periodic     x           y           z      points  spacing
  1. axis:    yes    8.139506    0.000000    0.000000    40     0.1762
  2. axis:    yes    4.069753    7.049019    0.000000    40     0.1762
  3. axis:    yes    0.000000    0.000000   16.430586    81     0.2028

  Lengths:   8.139506   8.139506  16.430586
  Angles:   90.000000  90.000000  60.000000

Effective grid spacing dv^(1/3) = 0.1938

     iter     time        total  log10-change:  magmom
                         energy  eigst   dens
iter:   1 16:20:51  -205.070911  -0.75           +0.0000
iter:   2 16:21:04  -208.547159  -1.88  -1.83    -0.0000
iter:   3 16:21:17  -202.397667  -2.17  -1.56    -0.0000
iter:   4 16:21:30  -200.019684  -2.11  -1.85    +0.0000
iter:   5 16:21:44  -199.712166  -3.01  -2.15    +0.0000
iter:   6 16:21:57  -199.088151  -2.70  -2.15    +0.0000
iter:   7 16:22:10  -198.897201  -2.75  -2.37    +0.0000
iter:   8 16:22:24  -198.817328  -3.17  -2.55    +0.0000
iter:   9 16:22:37  -198.810688c -3.33  -2.72    +0.0000
iter:  10 16:22:50  -198.768824c -3.97  -2.60    +0.0000
iter:  11 16:23:03  -198.765146c -4.46  -2.89    +0.0000
iter:  12 16:23:16  -198.760437c -4.26  -2.96    +0.0000
iter:  13 16:23:30  -198.760307c -4.36  -3.17    +0.0000
iter:  14 16:23:43  -198.760027c -5.01  -3.25    +0.0000
iter:  15 16:23:56  -198.759972c -5.31  -3.30    +0.0000
iter:  16 16:24:09  -198.761627c -4.96  -3.39    +0.0000
iter:  17 16:24:23  -198.760431c -5.27  -3.30    +0.0000
iter:  18 16:24:36  -198.760145c -5.44  -3.48    +0.0000
iter:  19 16:24:49  -198.760104c -6.13  -3.66    +0.0000
iter:  20 16:25:02  -198.759964c -5.94  -3.71    +0.0000
iter:  21 16:25:15  -198.759914c -5.94  -3.89    +0.0000
iter:  22 16:25:29  -198.759897c -6.59  -4.04c   +0.0000
iter:  23 16:25:42  -198.759938c -6.82  -4.09c   +0.0000
iter:  24 16:25:55  -198.759894c -6.93  -3.96    +0.0000
iter:  25 16:26:08  -198.759896c -6.88  -4.25c   +0.0000
iter:  26 16:26:22  -198.759904c -6.93  -4.40c   +0.0000
iter:  27 16:26:35  -198.759913c -7.23  -4.48c   +0.0000
iter:  28 16:26:48  -198.759915c -7.66c -4.40c   +0.0000

Converged after 28 iterations.

Dipole moment: (-0.243350, -0.140498, -0.143827) |e|*Ang

Total magnetic moment: (0.000000, 0.000000, 0.000000)
Local magnetic moments:
   0 Rh ( 0.000000,  0.000000,  0.000000)
   1 Rh ( 0.000000,  0.000000,  0.000000)
   2 Rh ( 0.000000,  0.000000,  0.000000)
   3 Rh ( 0.000000,  0.000000,  0.000000)
   4 Rh ( 0.000000,  0.000000,  0.000000)
   5 Rh ( 0.000000,  0.000000,  0.000000)
   6 Rh ( 0.000000,  0.000000,  0.000000)
   7 Rh ( 0.000000,  0.000000,  0.000000)
   8 Rh ( 0.000000,  0.000000,  0.000000)
   9 Rh ( 0.000000,  0.000000, -0.000000)
  10 Rh ( 0.000000,  0.000000,  0.000000)
  11 Rh ( 0.000000,  0.000000,  0.000000)
  12 Rh ( 0.000000,  0.000000, -0.000000)
  13 Rh ( 0.000000,  0.000000,  0.000000)
  14 Rh ( 0.000000,  0.000000, -0.000000)
  15 Rh ( 0.000000,  0.000000, -0.000000)
  16 Rh ( 0.000000,  0.000000, -0.000000)
  17 Rh ( 0.000000,  0.000000, -0.000000)
  18 Rh ( 0.000000,  0.000000,  0.000000)
  19 Rh ( 0.000000,  0.000000,  0.000000)
  20 Rh ( 0.000000,  0.000000,  0.000000)
  21 Rh ( 0.000000,  0.000000,  0.000000)
  22 Rh ( 0.000000,  0.000000, -0.000000)
  23 Rh ( 0.000000,  0.000000,  0.000000)
  24 Rh ( 0.000000,  0.000000,  0.000000)
  25 Rh ( 0.000000,  0.000000,  0.000000)
  26 Rh ( 0.000000,  0.000000, -0.000000)
  27 O  ( 0.000000,  0.000000, -0.000000)
  28 C  ( 0.000000,  0.000000,  0.000000)

Energy contributions relative to reference atoms: (reference = -3516703.949422)

Kinetic:       -166.349820
Potential:      +84.309702
External:        +0.000000
XC:            -113.754472
Entropy (-ST):   -1.680180
Local:           -2.125235
--------------------------
Free energy:   -199.600005
Extrapolated:  -198.759915

Spin contamination: 0.000000 electrons
Showing only first 2 kpts
                      Up                     Down
 Kpt  Band  Eigenvalues  Occupancy  Eigenvalues  Occupancy
  0   205      1.72719    0.55906      1.72719    0.55906
  0   206      1.76065    0.47571      1.76065    0.47571
  0   207      1.77504    0.43999      1.77504    0.43999
  0   208      1.77918    0.42982      1.77918    0.42982

  1   205      1.66862    0.69488      1.66862    0.69488
  1   206      1.67424    0.68285      1.67424    0.68285
  1   207      1.72406    0.56676      1.72406    0.56676
  1   208      1.74960    0.50330      1.74960    0.50330


Fermi level: 1.75093

No gap

Forces in eV/Ang:
  0 Rh   -0.01675   -0.00967    0.46277
  1 Rh   -0.00000   -0.03968    0.41493
  2 Rh    0.01675   -0.00967    0.46277
  3 Rh   -0.03436    0.01984    0.41493
  4 Rh    0.03436    0.01984    0.41493
  5 Rh    0.00000    0.15919    0.27762
  6 Rh    0.00000    0.01934    0.46277
  7 Rh    0.13786   -0.07959    0.27762
  8 Rh   -0.13786   -0.07959    0.27762
  9 Rh   -0.00000   -0.06174   -0.25682
 10 Rh   -0.00632   -0.00365    0.00293
 11 Rh    0.00632   -0.00365    0.00293
 12 Rh    0.02436   -0.01407    0.05348
 13 Rh    0.00000    0.00730    0.00293
 14 Rh   -0.02436   -0.01407    0.05348
 15 Rh    0.05347    0.03087   -0.25682
 16 Rh   -0.05347    0.03087   -0.25682
 17 Rh   -0.00000    0.02813    0.05348
 18 Rh    0.00000   -0.00000    0.67901
 19 Rh    0.31581   -0.01155   -0.50005
 20 Rh   -0.31581   -0.01155   -0.50005
 21 Rh    0.14791    0.27927   -0.50005
 22 Rh    0.00000    0.00000   -0.42499
 23 Rh   -0.14791    0.27927   -0.50005
 24 Rh   -0.16790   -0.26773   -0.50005
 25 Rh    0.16790   -0.26773   -0.50005
 26 Rh    0.00000    0.00000   -0.37977
 27 O     0.00000   -0.00000   -0.08370
 28 C     0.00000    0.00000    0.19616

System changes: positions 

Initializing position-dependent things.

Density initialized from wave functions
                                           
                                           
                                           
                                           
                                           
                                           
                                           
       O                                   
                Rh     Rh     Rh           
       C                                   
            Rh   RRh    RRh    Rh          
       Rh    RRh   RRh    Rh               
                                           
        Rh     Rh   RRh    Rh    Rh        
                                           
                Rh    Rh     Rh            
           Rh    Rh     Rh                 
                                           
                                           
                                           
                                           

Positions:
   0 Rh     1.356584    0.783224    6.000000    ( 0.0000,  0.0000,  0.0000)
   1 Rh     4.069753    0.783224    6.000000    ( 0.0000,  0.0000,  0.0000)
   2 Rh     6.782922    0.783224    6.000000    ( 0.0000,  0.0000,  0.0000)
   3 Rh     2.713169    3.132897    6.000000    ( 0.0000,  0.0000,  0.0000)
   4 Rh     5.426337    3.132897    6.000000    ( 0.0000,  0.0000,  0.0000)
   5 Rh     8.139506    3.132897    6.000000    ( 0.0000,  0.0000,  0.0000)
   6 Rh     4.069753    5.482570    6.000000    ( 0.0000,  0.0000,  0.0000)
   7 Rh     6.782922    5.482570    6.000000    ( 0.0000,  0.0000,  0.0000)
   8 Rh     9.496091    5.482570    6.000000    ( 0.0000,  0.0000,  0.0000)
   9 Rh    -0.000000    1.566449    8.215293    ( 0.0000,  0.0000,  0.0000)
  10 Rh     2.713169    1.566449    8.215293    ( 0.0000,  0.0000,  0.0000)
  11 Rh     5.426337    1.566449    8.215293    ( 0.0000,  0.0000,  0.0000)
  12 Rh     1.356584    3.916122    8.215293    ( 0.0000,  0.0000,  0.0000)
  13 Rh     4.069753    3.916122    8.215293    ( 0.0000,  0.0000,  0.0000)
  14 Rh     6.782922    3.916122    8.215293    ( 0.0000,  0.0000,  0.0000)
  15 Rh     2.713169    6.265795    8.215293    ( 0.0000,  0.0000,  0.0000)
  16 Rh     5.426337    6.265795    8.215293    ( 0.0000,  0.0000,  0.0000)
  17 Rh     8.139506    6.265795    8.215293    ( 0.0000,  0.0000,  0.0000)
  18 Rh     0.000000    0.000000   10.430586    ( 0.0000,  0.0000,  0.0000)
  19 Rh     2.713169    0.000000   10.430586    ( 0.0000,  0.0000,  0.0000)
  20 Rh     5.426337    0.000000   10.430586    ( 0.0000,  0.0000,  0.0000)
  21 Rh     1.356584    2.349673   10.430586    ( 0.0000,  0.0000,  0.0000)
  22 Rh     4.069753    2.349673   10.430586    ( 0.0000,  0.0000,  0.0000)
  23 Rh     6.782922    2.349673   10.430586    ( 0.0000,  0.0000,  0.0000)
  24 Rh     2.713169    4.699346   10.430586    ( 0.0000,  0.0000,  0.0000)
  25 Rh     5.426337    4.699346   10.430586    ( 0.0000,  0.0000,  0.0000)
  26 Rh     8.139506    4.699346   10.430586    ( 0.0000,  0.0000,  0.0000)
  27 O     -0.000000   -0.000000   13.432015    ( 0.0000,  0.0000,  0.0000)
  28 C     -0.000000   -0.000000   12.270860    ( 0.0000,  0.0000,  0.0000)

Unit cell:
           periodic     x           y           z      points  spacing
  1. axis:    yes    8.139506    0.000000    0.000000    40     0.1762
  2. axis:    yes    4.069753    7.049019    0.000000    40     0.1762
  3. axis:    yes    0.000000    0.000000   16.430586    81     0.2028

  Lengths:   8.139506   8.139506  16.430586
  Angles:   90.000000  90.000000  60.000000

Effective grid spacing dv^(1/3) = 0.1938

     iter     time        total  log10-change:  magmom
                         energy  eigst   dens
iter:   1 16:27:08  -198.765383  -4.28           +0.0000
iter:   2 16:27:21  -198.793312  -4.46  -3.20    +0.0000
iter:   3 16:27:34  -198.760495c -4.89  -2.78    +0.0000
iter:   4 16:27:47  -198.760342c -6.01  -3.94    +0.0000
iter:   5 16:28:01  -198.760309c -6.41  -4.11c   +0.0000
iter:   6 16:28:14  -198.760286c -6.73  -4.28c   +0.0000
iter:   7 16:28:27  -198.760281c -6.68  -4.51c   +0.0000
iter:   8 16:28:40  -198.760278c -7.38  -4.55c   +0.0000
iter:   9 16:28:54  -198.760280c -7.32  -4.45c   -0.0000
iter:  10 16:29:07  -198.760256c -7.23  -4.29c   -0.0000
iter:  11 16:29:20  -198.760253c -8.08c -4.87c   -0.0000

Converged after 11 iterations.

Dipole moment: (-0.242524, -0.140021, -0.136768) |e|*Ang

Total magnetic moment: (0.000000, 0.000000, -0.000000)
Local magnetic moments:
   0 Rh ( 0.000000,  0.000000,  0.000000)
   1 Rh ( 0.000000,  0.000000,  0.000000)
   2 Rh ( 0.000000,  0.000000,  0.000000)
   3 Rh ( 0.000000,  0.000000,  0.000000)
   4 Rh ( 0.000000,  0.000000,  0.000000)
   5 Rh ( 0.000000,  0.000000,  0.000000)
   6 Rh ( 0.000000,  0.000000,  0.000000)
   7 Rh ( 0.000000,  0.000000,  0.000000)
   8 Rh ( 0.000000,  0.000000,  0.000000)
   9 Rh ( 0.000000,  0.000000, -0.000000)
  10 Rh ( 0.000000,  0.000000, -0.000000)
  11 Rh ( 0.000000,  0.000000, -0.000000)
  12 Rh ( 0.000000,  0.000000, -0.000000)
  13 Rh ( 0.000000,  0.000000, -0.000000)
  14 Rh ( 0.000000,  0.000000, -0.000000)
  15 Rh ( 0.000000,  0.000000, -0.000000)
  16 Rh ( 0.000000,  0.000000, -0.000000)
  17 Rh ( 0.000000,  0.000000, -0.000000)
  18 Rh ( 0.000000,  0.000000,  0.000000)
  19 Rh ( 0.000000,  0.000000, -0.000000)
  20 Rh ( 0.000000,  0.000000, -0.000000)
  21 Rh ( 0.000000,  0.000000, -0.000000)
  22 Rh ( 0.000000,  0.000000, -0.000000)
  23 Rh ( 0.000000,  0.000000, -0.000000)
  24 Rh ( 0.000000,  0.000000, -0.000000)
  25 Rh ( 0.000000,  0.000000, -0.000000)
  26 Rh ( 0.000000,  0.000000, -0.000000)
  27 O  ( 0.000000,  0.000000,  0.000000)
  28 C  ( 0.000000,  0.000000, -0.000000)

Energy contributions relative to reference atoms: (reference = -3516703.949422)

Kinetic:       -166.396514
Potential:      +84.332961
External:        +0.000000
XC:            -113.719224
Entropy (-ST):   -1.680332
Local:           -2.137311
--------------------------
Free energy:   -199.600419
Extrapolated:  -198.760253

Spin contamination: 0.000000 electrons
Showing only first 2 kpts
                      Up                     Down
 Kpt  Band  Eigenvalues  Occupancy  Eigenvalues  Occupancy
  0   205      1.73118    0.55929      1.73118    0.55929
  0   206      1.76469    0.47584      1.76469    0.47584
  0   207      1.77908    0.44013      1.77908    0.44013
  0   208      1.78302    0.43045      1.78302    0.43045

  1   205      1.67224    0.69588      1.67224    0.69588
  1   206      1.67828    0.68294      1.67828    0.68294
  1   207      1.72828    0.56645      1.72828    0.56645
  1   208      1.75372    0.50324      1.75372    0.50324


Fermi level: 1.75501

No gap

Forces in eV/Ang:
  0 Rh   -0.01686   -0.00973    0.47301
  1 Rh    0.00000   -0.03913    0.42473
  2 Rh    0.01686   -0.00973    0.47301
  3 Rh   -0.03389    0.01957    0.42473
  4 Rh    0.03389    0.01957    0.42473
  5 Rh    0.00000    0.15717    0.28864
  6 Rh   -0.00000    0.01946    0.47301
  7 Rh    0.13611   -0.07858    0.28864
  8 Rh   -0.13611   -0.07858    0.28864
  9 Rh   -0.00000   -0.06048   -0.25595
 10 Rh   -0.00542   -0.00313    0.00141
 11 Rh    0.00542   -0.00313    0.00141
 12 Rh    0.02470   -0.01426    0.05203
 13 Rh    0.00000    0.00626    0.00141
 14 Rh   -0.02470   -0.01426    0.05203
 15 Rh    0.05237    0.03024   -0.25595
 16 Rh   -0.05237    0.03024   -0.25595
 17 Rh   -0.00000    0.02852    0.05203
 18 Rh    0.00000   -0.00000    0.81493
 19 Rh    0.31194   -0.01120   -0.50531
 20 Rh   -0.31194   -0.01120   -0.50531
 21 Rh    0.14627    0.27575   -0.50531
 22 Rh    0.00000    0.00000   -0.43200
 23 Rh   -0.14627    0.27575   -0.50531
 24 Rh   -0.16567   -0.26455   -0.50531
 25 Rh    0.16567   -0.26455   -0.50531
 26 Rh    0.00000    0.00000   -0.38754
 27 O     0.00000   -0.00000    0.04046
 28 C    -0.00000   -0.00000   -0.05640

Timing:                                      incl.     excl.
-------------------------------------------------------------------
Density initialized from wave functions:     6.722     5.837   0.2% |
 Symmetrize density:                         0.885     0.885   0.0% |
Forces:                                     19.754    19.754   0.5% |
Hamiltonian:                                 5.035     0.029   0.0% |
 Atomic:                                     1.327     0.007   0.0% |
  XC Correction:                             1.321     1.321   0.0% |
 Calculate atomic Hamiltonians:              0.692     0.692   0.0% |
 Communicate:                                1.366     1.366   0.0% |
 Initialize Hamiltonian:                     0.000     0.000   0.0% |
 Poisson:                                    0.008     0.008   0.0% |
 XC 3D grid:                                 1.612     1.612   0.0% |
LCAO initialization:                        38.382     0.316   0.0% |
 LCAO eigensolver:                           7.817     0.004   0.0% |
  Calculate projections:                     0.000     0.000   0.0% |
  DenseAtomicCorrection:                     0.000     0.000   0.0% |
  Distribute overlap matrix:                 6.930     6.930   0.2% |
  Orbital Layouts:                           0.472     0.472   0.0% |
  Potential matrix:                          0.320     0.320   0.0% |
  Sum over cells:                            0.091     0.091   0.0% |
 LCAO to grid:                              29.756    29.756   0.8% |
 Set positions (LCAO WFS):                   0.494     0.413   0.0% |
  Basic WFS set positions:                   0.004     0.004   0.0% |
  Basis functions set positions:             0.000     0.000   0.0% |
  P tci:                                     0.001     0.001   0.0% |
  ST tci:                                    0.043     0.043   0.0% |
  mktci:                                     0.032     0.032   0.0% |
PWDescriptor:                                0.025     0.025   0.0% |
Redistribute:                                0.012     0.012   0.0% |
SCF-cycle:                                3502.160     7.076   0.2% |
 Davidson:                                3164.314   523.877  14.5% |-----|
  Apply H:                                 262.900   254.474   7.1% |--|
   HMM T:                                    8.426     8.426   0.2% |
  Subspace diag:                           467.823     0.231   0.0% |
   calc_h_matrix:                          319.444    60.013   1.7% ||
    Apply H:                               259.431   251.090   7.0% |--|
     HMM T:                                  8.341     8.341   0.2% |
   diagonalize:                             50.150    50.150   1.4% ||
   rotate_psi:                              97.997    97.997   2.7% ||
  calc. matrices:                          931.422   409.698  11.4% |----|
   Apply H:                                521.725   504.872  14.0% |-----|
    HMM T:                                  16.852    16.852   0.5% |
  diagonalize:                             774.724   774.724  21.5% |--------|
  rotate_psi:                              203.567   203.567   5.6% |-|
 Density:                                  193.725     0.007   0.0% |
  Atomic density matrices:                   2.845     2.845   0.1% |
  Mix:                                      30.417    30.417   0.8% |
  Multipole moments:                         0.075     0.075   0.0% |
  Pseudo density:                          160.381   135.311   3.7% ||
   Symmetrize density:                      25.070    25.070   0.7% |
 Hamiltonian:                              128.907     0.768   0.0% |
  Atomic:                                   34.133     0.201   0.0% |
   XC Correction:                           33.931    33.931   0.9% |
  Calculate atomic Hamiltonians:            17.612    17.612   0.5% |
  Communicate:                              35.369    35.369   1.0% |
  Poisson:                                   0.238     0.238   0.0% |
  XC 3D grid:                               40.786    40.786   1.1% |
 Orthonormalize:                             8.138     0.011   0.0% |
  calc_s_matrix:                             1.062     1.062   0.0% |
  inverse-cholesky:                          0.888     0.888   0.0% |
  projections:                               4.286     4.286   0.1% |
  rotate_psi_s:                              1.891     1.891   0.1% |
Set symmetry:                                0.003     0.003   0.0% |
Other:                                      37.228    37.228   1.0% |
-------------------------------------------------------------------
Total:                                              3609.322 100.0%

Memory usage: 655.95 MiB
Date: Fri Feb 24 16:29:25 2023
