
  ___ ___ ___ _ _ _  
 |   |   |_  | | | | 
 | | | | | . | | | | 
 |__ |  _|___|_____|  22.8.0
 |___|_|             

User:   nicog@vera13-3
Date:   Fri Feb 24 14:59:08 2023
Arch:   x86_64
Pid:    2953712
CWD:    /cephyr/users/nicog/Vera/Computational_Materials_2023/A4
Python: 3.10.4
gpaw:   /apps/Arch/software/GPAW/22.8.0-foss-2022a/lib/python3.10/site-packages/gpaw
_gpaw:  /apps/Arch/software/GPAW/22.8.0-foss-2022a/lib/python3.10/site-packages/
        _gpaw.cpython-310-x86_64-linux-gnu.so
ase:    /apps/Arch/software/ASE/3.22.1-foss-2022a/lib/python3.10/site-packages/ase (version 3.22.1)
numpy:  /apps/Arch/software/SciPy-bundle/2022.05-foss-2022a/lib/python3.10/site-packages/numpy (version 1.22.3)
scipy:  /apps/Arch/software/SciPy-bundle/2022.05-foss-2022a/lib/python3.10/site-packages/scipy (version 1.8.1)
libxc:  5.2.3
units:  Angstrom and eV
cores: 16
OpenMP: False
OMP_NUM_THREADS: 1

Input parameters:
  kpts: [4 4 1]
  mode: {ecut: 450.00000000000006,
         name: pw}
  spinpol: True
  xc: PBE

System changes: positions, numbers, cell, pbc, initial_charges, initial_magmoms 

Initialize ...

species:
  Pt:
    name: Platinum
    id: 5ed695806aff0c961dba1a84acd7f4b2
    Z: 78.0
    valence: 16
    core: 62
    charge: 0.0
    file: /apps/Common/software/GPAW-setups/0.9.20000/Pt.PBE.gz
    compensation charges: {type: gauss,
                           rc: 0.41,
                           lmax: 2}
    cutoffs: {filter: 2.26,
              core: 2.26}
    valence states:
      #              energy  rcut
      - 6s(1.00)    -5.628   1.307
      - 5p(6.00)   -56.051   1.371
      - 6p(0.00)    -0.845   1.371
      - 5d(9.00)    -6.153   1.307
      -  s          21.583   1.307
      -  d          21.058   1.307
  
    # Using partial waves for Pt as LCAO basis

  O:
    name: Oxygen
    id: 32ecd46bf208036f09c70b0ec9a88b78
    Z: 8.0
    valence: 6
    core: 2
    charge: 0.0
    file: /apps/Common/software/GPAW-setups/0.9.20000/O.PBE.gz
    compensation charges: {type: gauss,
                           rc: 0.21,
                           lmax: 2}
    cutoffs: {filter: 1.17,
              core: 0.83}
    valence states:
      #              energy  rcut
      - 2s(2.00)   -23.961   0.688
      - 2p(4.00)    -9.029   0.598
      -  s           3.251   0.688
      -  p          18.182   0.598
      -  d           0.000   0.619
  
    # Using partial waves for O as LCAO basis

  C:
    name: Carbon
    id: 4aa54d4b901d75f77cc0ea3eec22967b
    Z: 6.0
    valence: 4
    core: 2
    charge: 0.0
    file: /apps/Common/software/GPAW-setups/0.9.20000/C.PBE.gz
    compensation charges: {type: gauss,
                           rc: 0.20,
                           lmax: 2}
    cutoffs: {filter: 1.14,
              core: 1.14}
    valence states:
      #              energy  rcut
      - 2s(2.00)   -13.751   0.635
      - 2p(2.00)    -5.284   0.635
      -  s          13.461   0.635
      -  p          21.927   0.635
      -  d           0.000   0.635
  
    # Using partial waves for C as LCAO basis

Reference energy: -13513203.275138  # eV

Spin-polarized calculation.
Magnetic moment: 0.000000

Convergence criteria:
 Maximum [total energy] change in last 3 cyles: 0.0005 eV / electron
 Maximum integral of absolute [dens]ity change: 0.0001 electrons / valence electron
 Maximum integral of absolute [eigenst]ate change: 4e-08 eV^2 / valence electron
 Maximum number of scf [iter]ations: 333
 (Square brackets indicate name in SCF output, whereas a 'c' in
 the SCF output indicates the quantity has converged.)

Symmetries present (total): 6

  ( 1  0  0)  ( 1 -1  0)  ( 0  1  0)  ( 0 -1  0)  (-1  1  0)  (-1  0  0)
  ( 0  1  0)  ( 0 -1  0)  ( 1  0  0)  ( 1 -1  0)  (-1  0  0)  (-1  1  0)
  ( 0  0  1)  ( 0  0  1)  ( 0  0  1)  ( 0  0  1)  ( 0  0  1)  ( 0  0  1)
Note: your k-points are not as symmetric as your crystal!

16 k-points: 4 x 4 x 1 Monkhorst-Pack grid
6 k-points in the irreducible part of the Brillouin zone
       k-points in crystal coordinates                weights
   0:     0.12500000   -0.12500000    0.00000000          2/16
   1:     0.12500000    0.12500000    0.00000000          2/16
   2:     0.37500000   -0.37500000    0.00000000          2/16
   3:     0.37500000   -0.12500000    0.00000000          4/16
   4:     0.37500000    0.12500000    0.00000000          4/16
   5:     0.37500000    0.37500000    0.00000000          2/16

Wave functions: Plane wave expansion
  Cutoff energy: 450.000 eV
  Number of coefficients (min, max): 22030, 22077
  Pulay-stress correction: 0.000000 eV/Ang^3 (de/decut=0.000000)
  Using FFTW library
  ScaLapack parameters: grid=1x1, blocksize=None
  Wavefunction extrapolation:
    Improved wavefunction reuse through dual PAW basis 

Occupation numbers: Fermi-Dirac:
  width: 0.1000  # eV
 

Eigensolver
   Davidson(niter=2) 

Densities:
  Coarse grid: 42*42*84 grid
  Fine grid: 84*84*168 grid
  Total Charge: 0.000000 

Density mixing:
  Method: difference
  Backend: pulay
  Linear mixing parameter: 0.05
  old densities: 5
  Damping of long wavelength oscillations: 50 

Hamiltonian:
  XC and Coulomb potentials evaluated on a 84*84*168 grid
  Using the PBE Exchange-Correlation functional
  External potential:
    NoExternalPotential
 

XC parameters: PBE with 2 nearest neighbor stencil

Memory estimate:
  Process memory now: 608.42 MiB
  Calculator: 673.77 MiB
    Density: 11.32 MiB
      Arrays: 4.95 MiB
      Localized functions: 4.40 MiB
      Mixer: 1.98 MiB
    Hamiltonian: 3.79 MiB
      Arrays: 3.67 MiB
      XC: 0.00 MiB
      Poisson: 0.00 MiB
      vbar: 0.12 MiB
    Wavefunctions: 658.66 MiB
      Arrays psit_nG: 545.73 MiB
      Eigensolver: 103.77 MiB
      Projections: 1.58 MiB
      Projectors: 1.58 MiB
      PW-descriptor: 6.00 MiB

Total number of cores used: 16
Parallelization over k-points: 2
Domain decomposition: 2 x 2 x 2

Number of atoms: 29
Number of atomic orbitals: 332
Number of bands in calculation: 270
Number of valence electrons: 442
Bands to converge: occupied

... initialized

Initializing position-dependent things.

Density initialized from atomic densities
Creating initial wave functions:
  270 bands from LCAO basis set

                                            
                                            
                                            
                                            
                                            
                                            
                                            
       O                                    
                 Pt     Pt     Pt           
       C                                    
            Pt    PPt    PPt   Pt           
       Pt    PPt    PPt    Pt               
                                            
        Pt     Pt    PPt    Pt    Pt        
                                            
                Pt     Pt     Pt            
           Pt     Pt     Pt                 
                                            
                                            
                                            
                                            

Positions:
   0 Pt     1.402546    0.809760    6.000000    ( 0.0000,  0.0000,  0.0000)
   1 Pt     4.207639    0.809760    6.000000    ( 0.0000,  0.0000,  0.0000)
   2 Pt     7.012732    0.809760    6.000000    ( 0.0000,  0.0000,  0.0000)
   3 Pt     2.805093    3.239042    6.000000    ( 0.0000,  0.0000,  0.0000)
   4 Pt     5.610185    3.239042    6.000000    ( 0.0000,  0.0000,  0.0000)
   5 Pt     8.415278    3.239042    6.000000    ( 0.0000,  0.0000,  0.0000)
   6 Pt     4.207639    5.668323    6.000000    ( 0.0000,  0.0000,  0.0000)
   7 Pt     7.012732    5.668323    6.000000    ( 0.0000,  0.0000,  0.0000)
   8 Pt     9.817824    5.668323    6.000000    ( 0.0000,  0.0000,  0.0000)
   9 Pt    -0.000000    1.619521    8.290349    ( 0.0000,  0.0000,  0.0000)
  10 Pt     2.805093    1.619521    8.290349    ( 0.0000,  0.0000,  0.0000)
  11 Pt     5.610185    1.619521    8.290349    ( 0.0000,  0.0000,  0.0000)
  12 Pt     1.402546    4.048802    8.290349    ( 0.0000,  0.0000,  0.0000)
  13 Pt     4.207639    4.048802    8.290349    ( 0.0000,  0.0000,  0.0000)
  14 Pt     7.012732    4.048802    8.290349    ( 0.0000,  0.0000,  0.0000)
  15 Pt     2.805093    6.478084    8.290349    ( 0.0000,  0.0000,  0.0000)
  16 Pt     5.610185    6.478084    8.290349    ( 0.0000,  0.0000,  0.0000)
  17 Pt     8.415278    6.478084    8.290349    ( 0.0000,  0.0000,  0.0000)
  18 Pt     0.000000    0.000000   10.580697    ( 0.0000,  0.0000,  0.0000)
  19 Pt     2.805093    0.000000   10.580697    ( 0.0000,  0.0000,  0.0000)
  20 Pt     5.610185    0.000000   10.580697    ( 0.0000,  0.0000,  0.0000)
  21 Pt     1.402546    2.429281   10.580697    ( 0.0000,  0.0000,  0.0000)
  22 Pt     4.207639    2.429281   10.580697    ( 0.0000,  0.0000,  0.0000)
  23 Pt     7.012732    2.429281   10.580697    ( 0.0000,  0.0000,  0.0000)
  24 Pt     2.805093    4.858563   10.580697    ( 0.0000,  0.0000,  0.0000)
  25 Pt     5.610185    4.858563   10.580697    ( 0.0000,  0.0000,  0.0000)
  26 Pt     8.415278    4.858563   10.580697    ( 0.0000,  0.0000,  0.0000)
  27 O      0.000000    0.000000   13.730697    ( 0.0000,  0.0000,  0.0000)
  28 C      0.000000    0.000000   12.580357    ( 0.0000,  0.0000,  0.0000)

Unit cell:
           periodic     x           y           z      points  spacing
  1. axis:    yes    8.415278    0.000000    0.000000    42     0.1735
  2. axis:    yes    4.207639    7.287844    0.000000    42     0.1735
  3. axis:    yes    0.000000    0.000000   16.580697    84     0.1974

  Lengths:   8.415278   8.415278  16.580697
  Angles:   90.000000  90.000000  60.000000

Effective grid spacing dv^(1/3) = 0.1900

     iter     time        total  log10-change:  magmom
                         energy  eigst   dens
iter:   1 14:59:52  -189.263553                  +0.0000
iter:   2 15:00:08  -186.573901  -1.16  -1.40    -0.0000
iter:   3 15:00:24  -182.729503  -1.79  -1.44    -0.0000
iter:   4 15:00:40  -183.238699  -1.67  -1.54    -0.0000
iter:   5 15:00:55  -178.016228  -1.90  -1.58    +0.0000
iter:   6 15:01:11  -177.767106  -2.52  -1.92    +0.0000
iter:   7 15:01:27  -177.625751  -2.77  -2.07    +0.0000
iter:   8 15:01:43  -177.608958c -3.33  -2.22    +0.0000
iter:   9 15:01:58  -177.520803c -3.09  -2.27    +0.0000
iter:  10 15:02:14  -177.523203c -3.37  -2.45    +0.0000
iter:  11 15:02:30  -177.481778c -3.75  -2.60    -0.0000
iter:  12 15:02:46  -177.471626c -3.80  -2.82    -0.0000
iter:  13 15:03:01  -177.471607c -4.15  -3.01    -0.0000
iter:  14 15:03:17  -177.471473c -4.84  -3.15    -0.0000
iter:  15 15:03:33  -177.472709c -5.01  -3.18    -0.0000
iter:  16 15:03:48  -177.474943c -4.89  -3.31    -0.0000
iter:  17 15:04:04  -177.475358c -5.10  -3.56    -0.0000
iter:  18 15:04:20  -177.475401c -5.84  -3.79    -0.0000
iter:  19 15:04:36  -177.475070c -5.92  -3.86    -0.0000
iter:  20 15:04:51  -177.474844c -6.22  -4.01c   -0.0000
iter:  21 15:05:07  -177.474730c -6.63  -4.13c   -0.0000
iter:  22 15:05:23  -177.474698c -7.27  -4.22c   -0.0000
iter:  23 15:05:39  -177.474645c -6.67  -4.26c   -0.0000
iter:  24 15:05:54  -177.474619c -7.25  -4.45c   -0.0000
iter:  25 15:06:10  -177.474598c -7.36  -4.43c   -0.0000
iter:  26 15:06:26  -177.474579c -7.78c -4.65c   -0.0000

Converged after 26 iterations.

Dipole moment: (-0.202091, -0.116677, 0.189780) |e|*Ang

Total magnetic moment: (0.000000, 0.000000, -0.000000)
Local magnetic moments:
   0 Pt ( 0.000000,  0.000000, -0.000000)
   1 Pt ( 0.000000,  0.000000,  0.000000)
   2 Pt ( 0.000000,  0.000000, -0.000000)
   3 Pt ( 0.000000,  0.000000,  0.000000)
   4 Pt ( 0.000000,  0.000000,  0.000000)
   5 Pt ( 0.000000,  0.000000,  0.000000)
   6 Pt ( 0.000000,  0.000000, -0.000000)
   7 Pt ( 0.000000,  0.000000,  0.000000)
   8 Pt ( 0.000000,  0.000000,  0.000000)
   9 Pt ( 0.000000,  0.000000, -0.000000)
  10 Pt ( 0.000000,  0.000000,  0.000000)
  11 Pt ( 0.000000,  0.000000,  0.000000)
  12 Pt ( 0.000000,  0.000000, -0.000000)
  13 Pt ( 0.000000,  0.000000,  0.000000)
  14 Pt ( 0.000000,  0.000000, -0.000000)
  15 Pt ( 0.000000,  0.000000, -0.000000)
  16 Pt ( 0.000000,  0.000000, -0.000000)
  17 Pt ( 0.000000,  0.000000, -0.000000)
  18 Pt ( 0.000000,  0.000000, -0.000000)
  19 Pt ( 0.000000,  0.000000, -0.000000)
  20 Pt ( 0.000000,  0.000000, -0.000000)
  21 Pt ( 0.000000,  0.000000, -0.000000)
  22 Pt ( 0.000000,  0.000000, -0.000000)
  23 Pt ( 0.000000,  0.000000, -0.000000)
  24 Pt ( 0.000000,  0.000000, -0.000000)
  25 Pt ( 0.000000,  0.000000, -0.000000)
  26 Pt ( 0.000000,  0.000000,  0.000000)
  27 O  ( 0.000000,  0.000000, -0.000000)
  28 C  ( 0.000000,  0.000000, -0.000000)

Energy contributions relative to reference atoms: (reference = -13513203.275138)

Kinetic:       -294.447013
Potential:     +220.809972
External:        +0.000000
XC:             -88.314058
Entropy (-ST):   -1.753622
Local:          -14.646668
--------------------------
Free energy:   -178.351389
Extrapolated:  -177.474579

Spin contamination: 0.000000 electrons
Showing only first 2 kpts
                      Up                     Down
 Kpt  Band  Eigenvalues  Occupancy  Eigenvalues  Occupancy
  0   219      1.54883    0.70683      1.54883    0.70683
  0   220      1.57102    0.65884      1.57102    0.65884
  0   221      1.58362    0.62999      1.58362    0.62999
  0   222      1.61142    0.56319      1.61142    0.56319

  1   219      1.39146    0.92083      1.39146    0.92083
  1   220      1.43370    0.88405      1.43370    0.88405
  1   221      1.45045    0.86575      1.45045    0.86575
  1   222      1.49168    0.81023      1.49168    0.81023


Fermi level: 1.63683

No gap

Forces in eV/Ang:
  0 Pt    0.00993    0.00573   -0.04172
  1 Pt   -0.00000    0.01246   -0.10118
  2 Pt   -0.00993    0.00573   -0.04172
  3 Pt    0.01079   -0.00623   -0.10118
  4 Pt   -0.01079   -0.00623   -0.10118
  5 Pt    0.00000    0.02153   -0.17995
  6 Pt    0.00000   -0.01146   -0.04172
  7 Pt    0.01865   -0.01077   -0.17995
  8 Pt   -0.01865   -0.01077   -0.17995
  9 Pt   -0.00000   -0.00467    0.04499
 10 Pt    0.01848    0.01067   -0.00630
 11 Pt   -0.01848    0.01067   -0.00630
 12 Pt    0.00997   -0.00575   -0.04314
 13 Pt    0.00000   -0.02134   -0.00630
 14 Pt   -0.00997   -0.00575   -0.04314
 15 Pt    0.00405    0.00234    0.04499
 16 Pt   -0.00405    0.00234    0.04499
 17 Pt   -0.00000    0.01151   -0.04314
 18 Pt    0.00000    0.00000    2.79517
 19 Pt    0.37160    0.00037    0.00442
 20 Pt   -0.37160    0.00037    0.00442
 21 Pt    0.18612    0.32163    0.00442
 22 Pt   -0.00000    0.00000    0.08732
 23 Pt   -0.18612    0.32163    0.00442
 24 Pt   -0.18548   -0.32200    0.00442
 25 Pt    0.18548   -0.32200    0.00442
 26 Pt    0.00000    0.00000    0.08598
 27 O    -0.00000    0.00000   -0.09765
 28 C     0.00000    0.00000   -1.87010

System changes: positions 

Initializing position-dependent things.

Density initialized from wave functions
                                            
                                            
                                            
                                            
                                            
                                            
                                            
       O                                    
                 Pt     Pt     Pt           
       C                                    
            Pt    PPt    PPt   Pt           
       Pt    PPt    PPt    Pt               
                                            
        Pt     Pt    PPt    Pt    Pt        
                                            
                Pt     Pt     Pt            
           Pt     Pt     Pt                 
                                            
                                            
                                            
                                            

Positions:
   0 Pt     1.402546    0.809760    6.000000    ( 0.0000,  0.0000,  0.0000)
   1 Pt     4.207639    0.809760    6.000000    ( 0.0000,  0.0000,  0.0000)
   2 Pt     7.012732    0.809760    6.000000    ( 0.0000,  0.0000,  0.0000)
   3 Pt     2.805093    3.239042    6.000000    ( 0.0000,  0.0000,  0.0000)
   4 Pt     5.610185    3.239042    6.000000    ( 0.0000,  0.0000,  0.0000)
   5 Pt     8.415278    3.239042    6.000000    ( 0.0000,  0.0000,  0.0000)
   6 Pt     4.207639    5.668323    6.000000    ( 0.0000,  0.0000,  0.0000)
   7 Pt     7.012732    5.668323    6.000000    ( 0.0000,  0.0000,  0.0000)
   8 Pt     9.817824    5.668323    6.000000    ( 0.0000,  0.0000,  0.0000)
   9 Pt    -0.000000    1.619521    8.290349    ( 0.0000,  0.0000,  0.0000)
  10 Pt     2.805093    1.619521    8.290349    ( 0.0000,  0.0000,  0.0000)
  11 Pt     5.610185    1.619521    8.290349    ( 0.0000,  0.0000,  0.0000)
  12 Pt     1.402546    4.048802    8.290349    ( 0.0000,  0.0000,  0.0000)
  13 Pt     4.207639    4.048802    8.290349    ( 0.0000,  0.0000,  0.0000)
  14 Pt     7.012732    4.048802    8.290349    ( 0.0000,  0.0000,  0.0000)
  15 Pt     2.805093    6.478084    8.290349    ( 0.0000,  0.0000,  0.0000)
  16 Pt     5.610185    6.478084    8.290349    ( 0.0000,  0.0000,  0.0000)
  17 Pt     8.415278    6.478084    8.290349    ( 0.0000,  0.0000,  0.0000)
  18 Pt     0.000000    0.000000   10.580697    ( 0.0000,  0.0000,  0.0000)
  19 Pt     2.805093    0.000000   10.580697    ( 0.0000,  0.0000,  0.0000)
  20 Pt     5.610185    0.000000   10.580697    ( 0.0000,  0.0000,  0.0000)
  21 Pt     1.402546    2.429281   10.580697    ( 0.0000,  0.0000,  0.0000)
  22 Pt     4.207639    2.429281   10.580697    ( 0.0000,  0.0000,  0.0000)
  23 Pt     7.012732    2.429281   10.580697    ( 0.0000,  0.0000,  0.0000)
  24 Pt     2.805093    4.858563   10.580697    ( 0.0000,  0.0000,  0.0000)
  25 Pt     5.610185    4.858563   10.580697    ( 0.0000,  0.0000,  0.0000)
  26 Pt     8.415278    4.858563   10.580697    ( 0.0000,  0.0000,  0.0000)
  27 O     -0.000000    0.000000   13.709838    ( 0.0000,  0.0000,  0.0000)
  28 C      0.000000    0.000000   12.180901    ( 0.0000,  0.0000,  0.0000)

Unit cell:
           periodic     x           y           z      points  spacing
  1. axis:    yes    8.415278    0.000000    0.000000    42     0.1735
  2. axis:    yes    4.207639    7.287844    0.000000    42     0.1735
  3. axis:    yes    0.000000    0.000000   16.580697    84     0.1974

  Lengths:   8.415278   8.415278  16.580697
  Angles:   90.000000  90.000000  60.000000

Effective grid spacing dv^(1/3) = 0.1900

     iter     time        total  log10-change:  magmom
                         energy  eigst   dens
iter:   1 15:06:47  -186.276309  -0.56           -0.0000
iter:   2 15:07:03  -180.700894  -1.87  -1.82    +0.0000
iter:   3 15:07:18  -181.433154  -1.88  -1.97    +0.0000
iter:   4 15:07:34  -175.515657  -2.04  -1.70    +0.0000
iter:   5 15:07:50  -174.193414  -2.89  -1.97    +0.0000
iter:   6 15:08:06  -173.972001  -3.08  -2.24    +0.0000
iter:   7 15:08:22  -173.639324  -2.65  -2.37    +0.0000
iter:   8 15:08:37  -173.580599  -3.42  -2.59    +0.0000
iter:   9 15:08:53  -173.512393c -3.91  -2.64    +0.0000
iter:  10 15:09:09  -173.504736c -3.68  -2.77    +0.0000
iter:  11 15:09:24  -173.470181c -3.98  -2.75    +0.0000
iter:  12 15:09:40  -173.467940c -4.98  -3.13    +0.0000
iter:  13 15:09:56  -173.468416c -4.39  -3.23    +0.0000
iter:  14 15:10:12  -173.469797c -5.15  -3.31    +0.0000
iter:  15 15:10:27  -173.469073c -5.04  -3.39    +0.0000
iter:  16 15:10:43  -173.469528c -5.48  -3.60    +0.0000
iter:  17 15:10:59  -173.468487c -5.67  -3.47    +0.0000
iter:  18 15:11:15  -173.468399c -6.11  -3.89    +0.0000
iter:  19 15:11:30  -173.468254c -5.92  -3.90    +0.0000
iter:  20 15:11:46  -173.468128c -6.33  -4.11c   +0.0000
iter:  21 15:12:02  -173.468067c -6.90  -4.22c   +0.0000
iter:  22 15:12:18  -173.468045c -6.83  -4.38c   +0.0000
iter:  23 15:12:33  -173.468067c -7.54c -4.65c   +0.0000

Converged after 23 iterations.

Dipole moment: (-0.241225, -0.139271, -0.635500) |e|*Ang

Total magnetic moment: (0.000000, 0.000000, 0.000000)
Local magnetic moments:
   0 Pt ( 0.000000,  0.000000,  0.000000)
   1 Pt ( 0.000000,  0.000000, -0.000000)
   2 Pt ( 0.000000,  0.000000,  0.000000)
   3 Pt ( 0.000000,  0.000000, -0.000000)
   4 Pt ( 0.000000,  0.000000, -0.000000)
   5 Pt ( 0.000000,  0.000000, -0.000000)
   6 Pt ( 0.000000,  0.000000,  0.000000)
   7 Pt ( 0.000000,  0.000000, -0.000000)
   8 Pt ( 0.000000,  0.000000, -0.000000)
   9 Pt ( 0.000000,  0.000000,  0.000000)
  10 Pt ( 0.000000,  0.000000,  0.000000)
  11 Pt ( 0.000000,  0.000000,  0.000000)
  12 Pt ( 0.000000,  0.000000,  0.000000)
  13 Pt ( 0.000000,  0.000000,  0.000000)
  14 Pt ( 0.000000,  0.000000,  0.000000)
  15 Pt ( 0.000000,  0.000000,  0.000000)
  16 Pt ( 0.000000,  0.000000,  0.000000)
  17 Pt ( 0.000000,  0.000000,  0.000000)
  18 Pt ( 0.000000,  0.000000, -0.000000)
  19 Pt ( 0.000000,  0.000000,  0.000000)
  20 Pt ( 0.000000,  0.000000,  0.000000)
  21 Pt ( 0.000000,  0.000000,  0.000000)
  22 Pt ( 0.000000,  0.000000,  0.000000)
  23 Pt ( 0.000000,  0.000000,  0.000000)
  24 Pt ( 0.000000,  0.000000,  0.000000)
  25 Pt ( 0.000000,  0.000000,  0.000000)
  26 Pt ( 0.000000,  0.000000,  0.000000)
  27 O  ( 0.000000,  0.000000,  0.000000)
  28 C  ( 0.000000,  0.000000,  0.000000)

Energy contributions relative to reference atoms: (reference = -13513203.275138)

Kinetic:       -278.788320
Potential:     +208.694753
External:        +0.000000
XC:             -87.756106
Entropy (-ST):   -1.728128
Local:          -14.754330
--------------------------
Free energy:   -174.332131
Extrapolated:  -173.468067

Spin contamination: 0.000000 electrons
Showing only first 2 kpts
                      Up                     Down
 Kpt  Band  Eigenvalues  Occupancy  Eigenvalues  Occupancy
  0   219      1.24348    0.72690      1.24348    0.72690
  0   220      1.26870    0.67409      1.26870    0.67409
  0   221      1.28397    0.63970      1.28397    0.63970
  0   222      1.31734    0.55979      1.31734    0.55979

  1   219      1.10415    0.91468      1.10415    0.91468
  1   220      1.14090    0.88129      1.14090    0.88129
  1   221      1.14463    0.87733      1.14463    0.87733
  1   222      1.17691    0.83816      1.17691    0.83816


Fermi level: 1.34137

No gap

Forces in eV/Ang:
  0 Pt    0.00493    0.00285   -0.02837
  1 Pt    0.00000   -0.01112   -0.09443
  2 Pt   -0.00493    0.00285   -0.02837
  3 Pt   -0.00963    0.00556   -0.09443
  4 Pt    0.00963    0.00556   -0.09443
  5 Pt    0.00000    0.07800   -0.25149
  6 Pt   -0.00000   -0.00570   -0.02837
  7 Pt    0.06755   -0.03900   -0.25149
  8 Pt   -0.06755   -0.03900   -0.25149
  9 Pt    0.00000    0.03950   -0.00903
 10 Pt    0.02206    0.01274   -0.00780
 11 Pt   -0.02206    0.01274   -0.00780
 12 Pt   -0.00127    0.00073   -0.04424
 13 Pt    0.00000   -0.02548   -0.00780
 14 Pt    0.00127    0.00073   -0.04424
 15 Pt   -0.03421   -0.01975   -0.00903
 16 Pt    0.03421   -0.01975   -0.00903
 17 Pt    0.00000   -0.00147   -0.04424
 18 Pt    0.00000    0.00000   -9.56005
 19 Pt    0.51853   -0.00479   -0.03641
 20 Pt   -0.51853   -0.00479   -0.03641
 21 Pt    0.25512    0.45146   -0.03641
 22 Pt    0.00000   -0.00000    0.07592
 23 Pt   -0.25512    0.45146   -0.03641
 24 Pt   -0.26342   -0.44667   -0.03641
 25 Pt    0.26342   -0.44667   -0.03641
 26 Pt    0.00000    0.00000    0.08287
 27 O    -0.00000    0.00000  -10.31400
 28 C     0.00000    0.00000   21.35473

System changes: positions 

Initializing position-dependent things.

Density initialized from wave functions
                                            
                                            
                                            
                                            
                                            
                                            
                                            
       O                                    
                 Pt     Pt     Pt           
       C                                    
            Pt    PPt    PPt   Pt           
       Pt    PPt    PPt    Pt               
                                            
        Pt     Pt    PPt    Pt    Pt        
                                            
                Pt     Pt     Pt            
           Pt     Pt     Pt                 
                                            
                                            
                                            
                                            

Positions:
   0 Pt     1.402546    0.809760    6.000000    ( 0.0000,  0.0000,  0.0000)
   1 Pt     4.207639    0.809760    6.000000    ( 0.0000,  0.0000,  0.0000)
   2 Pt     7.012732    0.809760    6.000000    ( 0.0000,  0.0000,  0.0000)
   3 Pt     2.805093    3.239042    6.000000    ( 0.0000,  0.0000,  0.0000)
   4 Pt     5.610185    3.239042    6.000000    ( 0.0000,  0.0000,  0.0000)
   5 Pt     8.415278    3.239042    6.000000    ( 0.0000,  0.0000,  0.0000)
   6 Pt     4.207639    5.668323    6.000000    ( 0.0000,  0.0000,  0.0000)
   7 Pt     7.012732    5.668323    6.000000    ( 0.0000,  0.0000,  0.0000)
   8 Pt     9.817824    5.668323    6.000000    ( 0.0000,  0.0000,  0.0000)
   9 Pt    -0.000000    1.619521    8.290349    ( 0.0000,  0.0000,  0.0000)
  10 Pt     2.805093    1.619521    8.290349    ( 0.0000,  0.0000,  0.0000)
  11 Pt     5.610185    1.619521    8.290349    ( 0.0000,  0.0000,  0.0000)
  12 Pt     1.402546    4.048802    8.290349    ( 0.0000,  0.0000,  0.0000)
  13 Pt     4.207639    4.048802    8.290349    ( 0.0000,  0.0000,  0.0000)
  14 Pt     7.012732    4.048802    8.290349    ( 0.0000,  0.0000,  0.0000)
  15 Pt     2.805093    6.478084    8.290349    ( 0.0000,  0.0000,  0.0000)
  16 Pt     5.610185    6.478084    8.290349    ( 0.0000,  0.0000,  0.0000)
  17 Pt     8.415278    6.478084    8.290349    ( 0.0000,  0.0000,  0.0000)
  18 Pt     0.000000    0.000000   10.580697    ( 0.0000,  0.0000,  0.0000)
  19 Pt     2.805093    0.000000   10.580697    ( 0.0000,  0.0000,  0.0000)
  20 Pt     5.610185    0.000000   10.580697    ( 0.0000,  0.0000,  0.0000)
  21 Pt     1.402546    2.429281   10.580697    ( 0.0000,  0.0000,  0.0000)
  22 Pt     4.207639    2.429281   10.580697    ( 0.0000,  0.0000,  0.0000)
  23 Pt     7.012732    2.429281   10.580697    ( 0.0000,  0.0000,  0.0000)
  24 Pt     2.805093    4.858563   10.580697    ( 0.0000,  0.0000,  0.0000)
  25 Pt     5.610185    4.858563   10.580697    ( 0.0000,  0.0000,  0.0000)
  26 Pt     8.415278    4.858563   10.580697    ( 0.0000,  0.0000,  0.0000)
  27 O     -0.000000    0.000000   13.607052    ( 0.0000,  0.0000,  0.0000)
  28 C      0.000000    0.000000   12.481569    ( 0.0000,  0.0000,  0.0000)

Unit cell:
           periodic     x           y           z      points  spacing
  1. axis:    yes    8.415278    0.000000    0.000000    42     0.1735
  2. axis:    yes    4.207639    7.287844    0.000000    42     0.1735
  3. axis:    yes    0.000000    0.000000   16.580697    84     0.1974

  Lengths:   8.415278   8.415278  16.580697
  Angles:   90.000000  90.000000  60.000000

Effective grid spacing dv^(1/3) = 0.1900

     iter     time        total  log10-change:  magmom
                         energy  eigst   dens
iter:   1 15:12:55  -185.826505  -1.20           +0.0000
iter:   2 15:13:10  -182.433776  -2.05  -1.80    +0.0000
iter:   3 15:13:26  -186.138627  -1.90  -1.91    +0.0000
iter:   4 15:13:42  -179.336413  -2.48  -1.68    +0.0000
iter:   5 15:13:58  -178.852794  -3.25  -2.23    +0.0000
iter:   6 15:14:13  -178.293287  -3.07  -2.33    +0.0000
iter:   7 15:14:29  -177.799160  -2.77  -2.31    +0.0000
iter:   8 15:14:45  -177.694283  -3.28  -2.44    +0.0000
iter:   9 15:15:01  -177.633880c -3.56  -2.60    +0.0000
iter:  10 15:15:16  -177.609748c -3.90  -2.79    +0.0000
iter:  11 15:15:32  -177.603200c -3.89  -2.92    +0.0000
iter:  12 15:15:48  -177.596184c -4.50  -3.09    +0.0000
iter:  13 15:16:04  -177.593681c -4.96  -3.22    +0.0000
iter:  14 15:16:19  -177.592925c -4.70  -3.32    +0.0000
iter:  15 15:16:35  -177.593076c -5.69  -3.51    -0.0000
iter:  16 15:16:51  -177.593456c -5.56  -3.53    -0.0000
iter:  17 15:17:07  -177.593388c -6.00  -3.69    -0.0000
iter:  18 15:17:22  -177.592624c -5.40  -3.83    -0.0000
iter:  19 15:17:38  -177.592577c -6.63  -4.10c   -0.0000
iter:  20 15:17:54  -177.592606c -6.36  -4.12c   -0.0000
iter:  21 15:18:10  -177.592615c -7.14  -4.22c   -0.0000
iter:  22 15:18:25  -177.592643c -7.11  -4.23c   -0.0000
iter:  23 15:18:41  -177.592645c -7.53c -4.49c   -0.0000

Converged after 23 iterations.

Dipole moment: (-0.211731, -0.122243, 0.174223) |e|*Ang

Total magnetic moment: (0.000000, 0.000000, -0.000000)
Local magnetic moments:
   0 Pt ( 0.000000,  0.000000, -0.000000)
   1 Pt ( 0.000000,  0.000000, -0.000000)
   2 Pt ( 0.000000,  0.000000, -0.000000)
   3 Pt ( 0.000000,  0.000000, -0.000000)
   4 Pt ( 0.000000,  0.000000, -0.000000)
   5 Pt ( 0.000000,  0.000000, -0.000000)
   6 Pt ( 0.000000,  0.000000, -0.000000)
   7 Pt ( 0.000000,  0.000000, -0.000000)
   8 Pt ( 0.000000,  0.000000, -0.000000)
   9 Pt ( 0.000000,  0.000000, -0.000000)
  10 Pt ( 0.000000,  0.000000,  0.000000)
  11 Pt ( 0.000000,  0.000000,  0.000000)
  12 Pt ( 0.000000,  0.000000, -0.000000)
  13 Pt ( 0.000000,  0.000000,  0.000000)
  14 Pt ( 0.000000,  0.000000, -0.000000)
  15 Pt ( 0.000000,  0.000000, -0.000000)
  16 Pt ( 0.000000,  0.000000, -0.000000)
  17 Pt ( 0.000000,  0.000000, -0.000000)
  18 Pt ( 0.000000,  0.000000,  0.000000)
  19 Pt ( 0.000000,  0.000000,  0.000000)
  20 Pt ( 0.000000,  0.000000,  0.000000)
  21 Pt ( 0.000000,  0.000000,  0.000000)
  22 Pt ( 0.000000,  0.000000,  0.000000)
  23 Pt ( 0.000000,  0.000000,  0.000000)
  24 Pt ( 0.000000,  0.000000,  0.000000)
  25 Pt ( 0.000000,  0.000000,  0.000000)
  26 Pt ( 0.000000,  0.000000,  0.000000)
  27 O  ( 0.000000,  0.000000,  0.000000)
  28 C  ( 0.000000,  0.000000,  0.000000)

Energy contributions relative to reference atoms: (reference = -13513203.275138)

Kinetic:       -287.929455
Potential:     +215.708886
External:        +0.000000
XC:             -89.860521
Entropy (-ST):   -1.740344
Local:          -14.641383
--------------------------
Free energy:   -178.462817
Extrapolated:  -177.592645

Spin contamination: 0.000000 electrons
Showing only first 2 kpts
                      Up                     Down
 Kpt  Band  Eigenvalues  Occupancy  Eigenvalues  Occupancy
  0   219      1.54054    0.71220      1.54054    0.71220
  0   220      1.56377    0.66236      1.56377    0.66236
  0   221      1.57465    0.63762      1.57465    0.63762
  0   222      1.60598    0.56260      1.60598    0.56260

  1   219      1.38403    0.92210      1.38403    0.92210
  1   220      1.42765    0.88442      1.42765    0.88442
  1   221      1.44341    0.86732      1.44341    0.86732
  1   222      1.48183    0.81656      1.48183    0.81656


Fermi level: 1.63115

No gap

Forces in eV/Ang:
  0 Pt    0.00877    0.00506   -0.03372
  1 Pt    0.00000    0.00569   -0.10059
  2 Pt   -0.00877    0.00506   -0.03372
  3 Pt    0.00493   -0.00284   -0.10059
  4 Pt   -0.00493   -0.00284   -0.10059
  5 Pt    0.00000    0.03720   -0.20208
  6 Pt    0.00000   -0.01012   -0.03372
  7 Pt    0.03222   -0.01860   -0.20208
  8 Pt   -0.03222   -0.01860   -0.20208
  9 Pt   -0.00000    0.00786    0.02504
 10 Pt    0.01909    0.01102   -0.01411
 11 Pt   -0.01909    0.01102   -0.01411
 12 Pt    0.00692   -0.00400   -0.05085
 13 Pt   -0.00000   -0.02205   -0.01411
 14 Pt   -0.00692   -0.00400   -0.05085
 15 Pt   -0.00681   -0.00393    0.02504
 16 Pt    0.00681   -0.00393    0.02504
 17 Pt    0.00000    0.00799   -0.05085
 18 Pt    0.00000    0.00000    1.68571
 19 Pt    0.39606   -0.00150    0.00418
 20 Pt   -0.39606   -0.00150    0.00418
 21 Pt    0.19673    0.34375    0.00418
 22 Pt    0.00000    0.00000    0.09643
 23 Pt   -0.19673    0.34375    0.00418
 24 Pt   -0.19933   -0.34225    0.00418
 25 Pt    0.19933   -0.34225    0.00418
 26 Pt    0.00000    0.00000    0.09491
 27 O    -0.00000   -0.00000    3.08082
 28 C     0.00000    0.00000   -3.83419

System changes: positions 

Initializing position-dependent things.

Density initialized from wave functions
                                            
                                            
                                            
                                            
                                            
                                            
                                            
       O                                    
                 Pt     Pt     Pt           
       C                                    
            Pt    PPt    PPt   Pt           
       Pt    PPt    PPt    Pt               
                                            
        Pt     Pt    PPt    Pt    Pt        
                                            
                Pt     Pt     Pt            
           Pt     Pt     Pt                 
                                            
                                            
                                            
                                            

Positions:
   0 Pt     1.402546    0.809760    6.000000    ( 0.0000,  0.0000,  0.0000)
   1 Pt     4.207639    0.809760    6.000000    ( 0.0000,  0.0000,  0.0000)
   2 Pt     7.012732    0.809760    6.000000    ( 0.0000,  0.0000,  0.0000)
   3 Pt     2.805093    3.239042    6.000000    ( 0.0000,  0.0000,  0.0000)
   4 Pt     5.610185    3.239042    6.000000    ( 0.0000,  0.0000,  0.0000)
   5 Pt     8.415278    3.239042    6.000000    ( 0.0000,  0.0000,  0.0000)
   6 Pt     4.207639    5.668323    6.000000    ( 0.0000,  0.0000,  0.0000)
   7 Pt     7.012732    5.668323    6.000000    ( 0.0000,  0.0000,  0.0000)
   8 Pt     9.817824    5.668323    6.000000    ( 0.0000,  0.0000,  0.0000)
   9 Pt    -0.000000    1.619521    8.290349    ( 0.0000,  0.0000,  0.0000)
  10 Pt     2.805093    1.619521    8.290349    ( 0.0000,  0.0000,  0.0000)
  11 Pt     5.610185    1.619521    8.290349    ( 0.0000,  0.0000,  0.0000)
  12 Pt     1.402546    4.048802    8.290349    ( 0.0000,  0.0000,  0.0000)
  13 Pt     4.207639    4.048802    8.290349    ( 0.0000,  0.0000,  0.0000)
  14 Pt     7.012732    4.048802    8.290349    ( 0.0000,  0.0000,  0.0000)
  15 Pt     2.805093    6.478084    8.290349    ( 0.0000,  0.0000,  0.0000)
  16 Pt     5.610185    6.478084    8.290349    ( 0.0000,  0.0000,  0.0000)
  17 Pt     8.415278    6.478084    8.290349    ( 0.0000,  0.0000,  0.0000)
  18 Pt     0.000000    0.000000   10.580697    ( 0.0000,  0.0000,  0.0000)
  19 Pt     2.805093    0.000000   10.580697    ( 0.0000,  0.0000,  0.0000)
  20 Pt     5.610185    0.000000   10.580697    ( 0.0000,  0.0000,  0.0000)
  21 Pt     1.402546    2.429281   10.580697    ( 0.0000,  0.0000,  0.0000)
  22 Pt     4.207639    2.429281   10.580697    ( 0.0000,  0.0000,  0.0000)
  23 Pt     7.012732    2.429281   10.580697    ( 0.0000,  0.0000,  0.0000)
  24 Pt     2.805093    4.858563   10.580697    ( 0.0000,  0.0000,  0.0000)
  25 Pt     5.610185    4.858563   10.580697    ( 0.0000,  0.0000,  0.0000)
  26 Pt     8.415278    4.858563   10.580697    ( 0.0000,  0.0000,  0.0000)
  27 O     -0.000000   -0.000000   13.621143    ( 0.0000,  0.0000,  0.0000)
  28 C      0.000000    0.000000   12.448497    ( 0.0000,  0.0000,  0.0000)

Unit cell:
           periodic     x           y           z      points  spacing
  1. axis:    yes    8.415278    0.000000    0.000000    42     0.1735
  2. axis:    yes    4.207639    7.287844    0.000000    42     0.1735
  3. axis:    yes    0.000000    0.000000   16.580697    84     0.1974

  Lengths:   8.415278   8.415278  16.580697
  Angles:   90.000000  90.000000  60.000000

Effective grid spacing dv^(1/3) = 0.1900

     iter     time        total  log10-change:  magmom
                         energy  eigst   dens
iter:   1 15:19:02  -178.047597  -2.75           -0.0000
iter:   2 15:19:18  -177.971896  -3.21  -2.43    -0.0000
iter:   3 15:19:34  -177.859112c -3.45  -2.41    -0.0000
iter:   4 15:19:50  -177.668946  -3.65  -2.51    -0.0000
iter:   5 15:20:05  -177.647553c -4.16  -3.00    -0.0000
iter:   6 15:20:21  -177.640736c -4.29  -3.08    -0.0000
iter:   7 15:20:37  -177.639241c -4.81  -3.38    -0.0000
iter:   8 15:20:53  -177.636099c -4.97  -3.44    -0.0000
iter:   9 15:21:08  -177.635538c -5.54  -3.59    -0.0000
iter:  10 15:21:24  -177.635560c -5.70  -3.72    -0.0000
iter:  11 15:21:40  -177.634929c -5.98  -3.69    -0.0000
iter:  12 15:21:56  -177.634947c -6.69  -4.04c   -0.0000
iter:  13 15:22:11  -177.635087c -6.81  -4.16c   -0.0000
iter:  14 15:22:27  -177.635149c -6.96  -4.25c   -0.0000
iter:  15 15:22:43  -177.635116c -7.47c -4.46c   +0.0000

Converged after 15 iterations.

Dipole moment: (-0.214503, -0.123843, 0.067088) |e|*Ang

Total magnetic moment: (0.000000, 0.000000, 0.000000)
Local magnetic moments:
   0 Pt ( 0.000000,  0.000000, -0.000000)
   1 Pt ( 0.000000,  0.000000,  0.000000)
   2 Pt ( 0.000000,  0.000000, -0.000000)
   3 Pt ( 0.000000,  0.000000,  0.000000)
   4 Pt ( 0.000000,  0.000000,  0.000000)
   5 Pt ( 0.000000,  0.000000,  0.000000)
   6 Pt ( 0.000000,  0.000000, -0.000000)
   7 Pt ( 0.000000,  0.000000,  0.000000)
   8 Pt ( 0.000000,  0.000000,  0.000000)
   9 Pt ( 0.000000,  0.000000,  0.000000)
  10 Pt ( 0.000000,  0.000000, -0.000000)
  11 Pt ( 0.000000,  0.000000, -0.000000)
  12 Pt ( 0.000000,  0.000000,  0.000000)
  13 Pt ( 0.000000,  0.000000, -0.000000)
  14 Pt ( 0.000000,  0.000000,  0.000000)
  15 Pt ( 0.000000,  0.000000,  0.000000)
  16 Pt ( 0.000000,  0.000000,  0.000000)
  17 Pt ( 0.000000,  0.000000,  0.000000)
  18 Pt ( 0.000000,  0.000000, -0.000000)
  19 Pt ( 0.000000,  0.000000, -0.000000)
  20 Pt ( 0.000000,  0.000000, -0.000000)
  21 Pt ( 0.000000,  0.000000, -0.000000)
  22 Pt ( 0.000000,  0.000000, -0.000000)
  23 Pt ( 0.000000,  0.000000, -0.000000)
  24 Pt ( 0.000000,  0.000000, -0.000000)
  25 Pt ( 0.000000,  0.000000, -0.000000)
  26 Pt ( 0.000000,  0.000000,  0.000000)
  27 O  ( 0.000000,  0.000000,  0.000000)
  28 C  ( 0.000000,  0.000000, -0.000000)

Energy contributions relative to reference atoms: (reference = -13513203.275138)

Kinetic:       -292.021468
Potential:     +218.884925
External:        +0.000000
XC:             -88.971306
Entropy (-ST):   -1.738038
Local:          -14.658248
--------------------------
Free energy:   -178.504135
Extrapolated:  -177.635116

Spin contamination: 0.000000 electrons
Showing only first 2 kpts
                      Up                     Down
 Kpt  Band  Eigenvalues  Occupancy  Eigenvalues  Occupancy
  0   219      1.50302    0.71365      1.50302    0.71365
  0   220      1.52590    0.66472      1.52590    0.66472
  0   221      1.53727    0.63893      1.53727    0.63893
  0   222      1.56933    0.56220      1.56933    0.56220

  1   219      1.34749    0.92191      1.34749    0.92191
  1   220      1.39080    0.88446      1.39080    0.88446
  1   221      1.40603    0.86797      1.40603    0.86797
  1   222      1.44271    0.81999      1.44271    0.81999


Fermi level: 1.59434

No gap

Forces in eV/Ang:
  0 Pt    0.00843    0.00487   -0.02447
  1 Pt   -0.00000    0.00408   -0.09156
  2 Pt   -0.00843    0.00487   -0.02447
  3 Pt    0.00354   -0.00204   -0.09156
  4 Pt   -0.00354   -0.00204   -0.09156
  5 Pt   -0.00000    0.04175   -0.20045
  6 Pt   -0.00000   -0.00974   -0.02447
  7 Pt    0.03616   -0.02088   -0.20045
  8 Pt   -0.03616   -0.02088   -0.20045
  9 Pt    0.00000    0.00700    0.02743
 10 Pt    0.01922    0.01109   -0.01125
 11 Pt   -0.01922    0.01109   -0.01125
 12 Pt    0.00633   -0.00366   -0.04656
 13 Pt   -0.00000   -0.02219   -0.01125
 14 Pt   -0.00633   -0.00366   -0.04656
 15 Pt   -0.00606   -0.00350    0.02743
 16 Pt    0.00606   -0.00350    0.02743
 17 Pt    0.00000    0.00731   -0.04656
 18 Pt    0.00000    0.00000    1.29587
 19 Pt    0.40529   -0.00303   -0.00943
 20 Pt   -0.40529   -0.00303   -0.00943
 21 Pt    0.20002    0.35251   -0.00943
 22 Pt   -0.00000    0.00000    0.08754
 23 Pt   -0.20002    0.35251   -0.00943
 24 Pt   -0.20527   -0.34948   -0.00943
 25 Pt    0.20527   -0.34948   -0.00943
 26 Pt    0.00000    0.00000    0.08729
 27 O     0.00000    0.00000   -1.85557
 28 C     0.00000    0.00000    1.51054

System changes: positions 

Initializing position-dependent things.

Density initialized from wave functions
                                            
                                            
                                            
                                            
                                            
                                            
                                            
       O                                    
                 Pt     Pt     Pt           
       C                                    
            Pt    PPt    PPt   Pt           
       Pt    PPt    PPt    Pt               
                                            
        Pt     Pt    PPt    Pt    Pt        
                                            
                Pt     Pt     Pt            
           Pt     Pt     Pt                 
                                            
                                            
                                            
                                            

Positions:
   0 Pt     1.402546    0.809760    6.000000    ( 0.0000,  0.0000,  0.0000)
   1 Pt     4.207639    0.809760    6.000000    ( 0.0000,  0.0000,  0.0000)
   2 Pt     7.012732    0.809760    6.000000    ( 0.0000,  0.0000,  0.0000)
   3 Pt     2.805093    3.239042    6.000000    ( 0.0000,  0.0000,  0.0000)
   4 Pt     5.610185    3.239042    6.000000    ( 0.0000,  0.0000,  0.0000)
   5 Pt     8.415278    3.239042    6.000000    ( 0.0000,  0.0000,  0.0000)
   6 Pt     4.207639    5.668323    6.000000    ( 0.0000,  0.0000,  0.0000)
   7 Pt     7.012732    5.668323    6.000000    ( 0.0000,  0.0000,  0.0000)
   8 Pt     9.817824    5.668323    6.000000    ( 0.0000,  0.0000,  0.0000)
   9 Pt    -0.000000    1.619521    8.290349    ( 0.0000,  0.0000,  0.0000)
  10 Pt     2.805093    1.619521    8.290349    ( 0.0000,  0.0000,  0.0000)
  11 Pt     5.610185    1.619521    8.290349    ( 0.0000,  0.0000,  0.0000)
  12 Pt     1.402546    4.048802    8.290349    ( 0.0000,  0.0000,  0.0000)
  13 Pt     4.207639    4.048802    8.290349    ( 0.0000,  0.0000,  0.0000)
  14 Pt     7.012732    4.048802    8.290349    ( 0.0000,  0.0000,  0.0000)
  15 Pt     2.805093    6.478084    8.290349    ( 0.0000,  0.0000,  0.0000)
  16 Pt     5.610185    6.478084    8.290349    ( 0.0000,  0.0000,  0.0000)
  17 Pt     8.415278    6.478084    8.290349    ( 0.0000,  0.0000,  0.0000)
  18 Pt     0.000000    0.000000   10.580697    ( 0.0000,  0.0000,  0.0000)
  19 Pt     2.805093    0.000000   10.580697    ( 0.0000,  0.0000,  0.0000)
  20 Pt     5.610185    0.000000   10.580697    ( 0.0000,  0.0000,  0.0000)
  21 Pt     1.402546    2.429281   10.580697    ( 0.0000,  0.0000,  0.0000)
  22 Pt     4.207639    2.429281   10.580697    ( 0.0000,  0.0000,  0.0000)
  23 Pt     7.012732    2.429281   10.580697    ( 0.0000,  0.0000,  0.0000)
  24 Pt     2.805093    4.858563   10.580697    ( 0.0000,  0.0000,  0.0000)
  25 Pt     5.610185    4.858563   10.580697    ( 0.0000,  0.0000,  0.0000)
  26 Pt     8.415278    4.858563   10.580697    ( 0.0000,  0.0000,  0.0000)
  27 O     -0.000000   -0.000000   13.601498    ( 0.0000,  0.0000,  0.0000)
  28 C      0.000000    0.000000   12.445693    ( 0.0000,  0.0000,  0.0000)

Unit cell:
           periodic     x           y           z      points  spacing
  1. axis:    yes    8.415278    0.000000    0.000000    42     0.1735
  2. axis:    yes    4.207639    7.287844    0.000000    42     0.1735
  3. axis:    yes    0.000000    0.000000   16.580697    84     0.1974

  Lengths:   8.415278   8.415278  16.580697
  Angles:   90.000000  90.000000  60.000000

Effective grid spacing dv^(1/3) = 0.1900

     iter     time        total  log10-change:  magmom
                         energy  eigst   dens
iter:   1 15:23:04  -177.765311  -3.46           +0.0000
iter:   2 15:23:20  -177.819766  -3.46  -2.61    +0.0000
iter:   3 15:23:36  -177.684171c -4.02  -2.52    +0.0000
iter:   4 15:23:51  -177.664284c -4.53  -3.15    +0.0000
iter:   5 15:24:07  -177.656840c -4.54  -3.46    +0.0000
iter:   6 15:24:23  -177.655239c -5.38  -3.47    +0.0000
iter:   7 15:24:39  -177.654157c -5.53  -3.73    +0.0000
iter:   8 15:24:54  -177.653782c -6.03  -3.90    -0.0000
iter:   9 15:25:10  -177.653754c -6.69  -3.98    -0.0000
iter:  10 15:25:26  -177.653858c -6.26  -3.99    -0.0000
iter:  11 15:25:42  -177.653873c -6.93  -4.27c   -0.0000
iter:  12 15:25:57  -177.653866c -7.12  -4.41c   -0.0000
iter:  13 15:26:13  -177.653848c -7.57c -4.56c   -0.0000

Converged after 13 iterations.

Dipole moment: (-0.214454, -0.123815, 0.096257) |e|*Ang

Total magnetic moment: (0.000000, 0.000000, -0.000000)
Local magnetic moments:
   0 Pt ( 0.000000,  0.000000,  0.000000)
   1 Pt ( 0.000000,  0.000000,  0.000000)
   2 Pt ( 0.000000,  0.000000,  0.000000)
   3 Pt ( 0.000000,  0.000000,  0.000000)
   4 Pt ( 0.000000,  0.000000,  0.000000)
   5 Pt ( 0.000000,  0.000000, -0.000000)
   6 Pt ( 0.000000,  0.000000,  0.000000)
   7 Pt ( 0.000000,  0.000000, -0.000000)
   8 Pt ( 0.000000,  0.000000, -0.000000)
   9 Pt ( 0.000000,  0.000000, -0.000000)
  10 Pt ( 0.000000,  0.000000,  0.000000)
  11 Pt ( 0.000000,  0.000000,  0.000000)
  12 Pt ( 0.000000,  0.000000, -0.000000)
  13 Pt ( 0.000000,  0.000000,  0.000000)
  14 Pt ( 0.000000,  0.000000, -0.000000)
  15 Pt ( 0.000000,  0.000000, -0.000000)
  16 Pt ( 0.000000,  0.000000, -0.000000)
  17 Pt ( 0.000000,  0.000000, -0.000000)
  18 Pt ( 0.000000,  0.000000, -0.000000)
  19 Pt ( 0.000000,  0.000000, -0.000000)
  20 Pt ( 0.000000,  0.000000, -0.000000)
  21 Pt ( 0.000000,  0.000000, -0.000000)
  22 Pt ( 0.000000,  0.000000, -0.000000)
  23 Pt ( 0.000000,  0.000000, -0.000000)
  24 Pt ( 0.000000,  0.000000, -0.000000)
  25 Pt ( 0.000000,  0.000000, -0.000000)
  26 Pt ( 0.000000,  0.000000, -0.000000)
  27 O  ( 0.000000,  0.000000,  0.000000)
  28 C  ( 0.000000,  0.000000,  0.000000)

Energy contributions relative to reference atoms: (reference = -13513203.275138)

Kinetic:       -289.802719
Potential:     +217.079502
External:        +0.000000
XC:             -89.461018
Entropy (-ST):   -1.737237
Local:          -14.600994
--------------------------
Free energy:   -178.522466
Extrapolated:  -177.653848

Spin contamination: 0.000000 electrons
Showing only first 2 kpts
                      Up                     Down
 Kpt  Band  Eigenvalues  Occupancy  Eigenvalues  Occupancy
  0   219      1.51327    0.71390      1.51327    0.71390
  0   220      1.53632    0.66461      1.53632    0.66461
  0   221      1.54747    0.63932      1.54747    0.63932
  0   222      1.57971    0.56218      1.57971    0.56218

  1   219      1.35765    0.92206      1.35765    0.92206
  1   220      1.40117    0.88447      1.40117    0.88447
  1   221      1.41640    0.86797      1.41640    0.86797
  1   222      1.45315    0.81989      1.45315    0.81989


Fermi level: 1.60471

No gap

Forces in eV/Ang:
  0 Pt    0.00700    0.00404   -0.03115
  1 Pt    0.00000    0.00320   -0.09677
  2 Pt   -0.00700    0.00404   -0.03115
  3 Pt    0.00277   -0.00160   -0.09677
  4 Pt   -0.00277   -0.00160   -0.09677
  5 Pt    0.00000    0.04190   -0.20789
  6 Pt   -0.00000   -0.00809   -0.03115
  7 Pt    0.03629   -0.02095   -0.20789
  8 Pt   -0.03629   -0.02095   -0.20789
  9 Pt   -0.00000    0.00787    0.02714
 10 Pt    0.01989    0.01149   -0.00704
 11 Pt   -0.01989    0.01149   -0.00704
 12 Pt    0.00585   -0.00338   -0.04238
 13 Pt    0.00000   -0.02297   -0.00704
 14 Pt   -0.00585   -0.00338   -0.04238
 15 Pt   -0.00682   -0.00394    0.02714
 16 Pt    0.00682   -0.00394    0.02714
 17 Pt   -0.00000    0.00675   -0.04238
 18 Pt    0.00000    0.00000    1.21666
 19 Pt    0.40531   -0.00255   -0.01325
 20 Pt   -0.40531   -0.00255   -0.01325
 21 Pt    0.20044    0.35228   -0.01325
 22 Pt   -0.00000    0.00000    0.08315
 23 Pt   -0.20044    0.35228   -0.01325
 24 Pt   -0.20487   -0.34973   -0.01325
 25 Pt    0.20487   -0.34973   -0.01325
 26 Pt    0.00000    0.00000    0.08183
 27 O     0.00000    0.00000   -0.18259
 28 C    -0.00000   -0.00000    0.00311

System changes: positions 

Initializing position-dependent things.

Density initialized from wave functions
                                            
                                            
                                            
                                            
                                            
                                            
                                            
       O                                    
                 Pt     Pt     Pt           
       C                                    
            Pt    PPt    PPt   Pt           
       Pt    PPt    PPt    Pt               
                                            
        Pt     Pt    PPt    Pt    Pt        
                                            
                Pt     Pt     Pt            
           Pt     Pt     Pt                 
                                            
                                            
                                            
                                            

Positions:
   0 Pt     1.402546    0.809760    6.000000    ( 0.0000,  0.0000,  0.0000)
   1 Pt     4.207639    0.809760    6.000000    ( 0.0000,  0.0000,  0.0000)
   2 Pt     7.012732    0.809760    6.000000    ( 0.0000,  0.0000,  0.0000)
   3 Pt     2.805093    3.239042    6.000000    ( 0.0000,  0.0000,  0.0000)
   4 Pt     5.610185    3.239042    6.000000    ( 0.0000,  0.0000,  0.0000)
   5 Pt     8.415278    3.239042    6.000000    ( 0.0000,  0.0000,  0.0000)
   6 Pt     4.207639    5.668323    6.000000    ( 0.0000,  0.0000,  0.0000)
   7 Pt     7.012732    5.668323    6.000000    ( 0.0000,  0.0000,  0.0000)
   8 Pt     9.817824    5.668323    6.000000    ( 0.0000,  0.0000,  0.0000)
   9 Pt    -0.000000    1.619521    8.290349    ( 0.0000,  0.0000,  0.0000)
  10 Pt     2.805093    1.619521    8.290349    ( 0.0000,  0.0000,  0.0000)
  11 Pt     5.610185    1.619521    8.290349    ( 0.0000,  0.0000,  0.0000)
  12 Pt     1.402546    4.048802    8.290349    ( 0.0000,  0.0000,  0.0000)
  13 Pt     4.207639    4.048802    8.290349    ( 0.0000,  0.0000,  0.0000)
  14 Pt     7.012732    4.048802    8.290349    ( 0.0000,  0.0000,  0.0000)
  15 Pt     2.805093    6.478084    8.290349    ( 0.0000,  0.0000,  0.0000)
  16 Pt     5.610185    6.478084    8.290349    ( 0.0000,  0.0000,  0.0000)
  17 Pt     8.415278    6.478084    8.290349    ( 0.0000,  0.0000,  0.0000)
  18 Pt     0.000000    0.000000   10.580697    ( 0.0000,  0.0000,  0.0000)
  19 Pt     2.805093    0.000000   10.580697    ( 0.0000,  0.0000,  0.0000)
  20 Pt     5.610185    0.000000   10.580697    ( 0.0000,  0.0000,  0.0000)
  21 Pt     1.402546    2.429281   10.580697    ( 0.0000,  0.0000,  0.0000)
  22 Pt     4.207639    2.429281   10.580697    ( 0.0000,  0.0000,  0.0000)
  23 Pt     7.012732    2.429281   10.580697    ( 0.0000,  0.0000,  0.0000)
  24 Pt     2.805093    4.858563   10.580697    ( 0.0000,  0.0000,  0.0000)
  25 Pt     5.610185    4.858563   10.580697    ( 0.0000,  0.0000,  0.0000)
  26 Pt     8.415278    4.858563   10.580697    ( 0.0000,  0.0000,  0.0000)
  27 O     -0.000000   -0.000000   13.589983    ( 0.0000,  0.0000,  0.0000)
  28 C     -0.000000   -0.000000   12.435932    ( 0.0000,  0.0000,  0.0000)

Unit cell:
           periodic     x           y           z      points  spacing
  1. axis:    yes    8.415278    0.000000    0.000000    42     0.1735
  2. axis:    yes    4.207639    7.287844    0.000000    42     0.1735
  3. axis:    yes    0.000000    0.000000   16.580697    84     0.1974

  Lengths:   8.415278   8.415278  16.580697
  Angles:   90.000000  90.000000  60.000000

Effective grid spacing dv^(1/3) = 0.1900

     iter     time        total  log10-change:  magmom
                         energy  eigst   dens
iter:   1 15:26:34  -177.670082  -3.96           -0.0000
iter:   2 15:26:50  -177.679196  -4.25  -3.03    -0.0000
iter:   3 15:27:06  -177.658350c -4.87  -2.93    -0.0000
iter:   4 15:27:22  -177.656578c -5.45  -3.63    -0.0000
iter:   5 15:27:37  -177.655566c -5.32  -3.92    -0.0000
iter:   6 15:27:53  -177.655541c -6.41  -4.03c   +0.0000
iter:   7 15:28:09  -177.655504c -6.86  -4.14c   +0.0000
iter:   8 15:28:25  -177.655404c -6.50  -4.28c   +0.0000
iter:   9 15:28:40  -177.655348c -7.35  -4.55c   +0.0000
iter:  10 15:28:56  -177.655301c -7.05  -4.42c   +0.0000
iter:  11 15:29:12  -177.655291c -7.89c -4.61c   +0.0000

Converged after 11 iterations.

Dipole moment: (-0.216098, -0.124764, 0.092739) |e|*Ang

Total magnetic moment: (0.000000, 0.000000, 0.000000)
Local magnetic moments:
   0 Pt ( 0.000000,  0.000000, -0.000000)
   1 Pt ( 0.000000,  0.000000, -0.000000)
   2 Pt ( 0.000000,  0.000000, -0.000000)
   3 Pt ( 0.000000,  0.000000, -0.000000)
   4 Pt ( 0.000000,  0.000000, -0.000000)
   5 Pt ( 0.000000,  0.000000,  0.000000)
   6 Pt ( 0.000000,  0.000000, -0.000000)
   7 Pt ( 0.000000,  0.000000,  0.000000)
   8 Pt ( 0.000000,  0.000000,  0.000000)
   9 Pt ( 0.000000,  0.000000,  0.000000)
  10 Pt ( 0.000000,  0.000000, -0.000000)
  11 Pt ( 0.000000,  0.000000, -0.000000)
  12 Pt ( 0.000000,  0.000000,  0.000000)
  13 Pt ( 0.000000,  0.000000, -0.000000)
  14 Pt ( 0.000000,  0.000000,  0.000000)
  15 Pt ( 0.000000,  0.000000,  0.000000)
  16 Pt ( 0.000000,  0.000000,  0.000000)
  17 Pt ( 0.000000,  0.000000,  0.000000)
  18 Pt ( 0.000000,  0.000000, -0.000000)
  19 Pt ( 0.000000,  0.000000,  0.000000)
  20 Pt ( 0.000000,  0.000000,  0.000000)
  21 Pt ( 0.000000,  0.000000,  0.000000)
  22 Pt ( 0.000000,  0.000000, -0.000000)
  23 Pt ( 0.000000,  0.000000,  0.000000)
  24 Pt ( 0.000000,  0.000000,  0.000000)
  25 Pt ( 0.000000,  0.000000,  0.000000)
  26 Pt ( 0.000000,  0.000000,  0.000000)
  27 O  ( 0.000000,  0.000000,  0.000000)
  28 C  ( 0.000000,  0.000000,  0.000000)

Energy contributions relative to reference atoms: (reference = -13513203.275138)

Kinetic:       -289.091459
Potential:     +216.524843
External:        +0.000000
XC:             -89.597997
Entropy (-ST):   -1.736291
Local:          -14.622533
--------------------------
Free energy:   -178.523437
Extrapolated:  -177.655291

Spin contamination: 0.000000 electrons
Showing only first 2 kpts
                      Up                     Down
 Kpt  Band  Eigenvalues  Occupancy  Eigenvalues  Occupancy
  0   219      1.51102    0.71435      1.51102    0.71435
  0   220      1.53416    0.66489      1.53416    0.66489
  0   221      1.54525    0.63977      1.54525    0.63977
  0   222      1.57770    0.56213      1.57770    0.56213

  1   219      1.35558    0.92209      1.35558    0.92209
  1   220      1.39917    0.88444      1.39917    0.88444
  1   221      1.41424    0.86812      1.41424    0.86812
  1   222      1.45072    0.82049      1.45072    0.82049


Fermi level: 1.60268

No gap

Forces in eV/Ang:
  0 Pt    0.00823    0.00475   -0.03207
  1 Pt    0.00000    0.00289   -0.10030
  2 Pt   -0.00823    0.00475   -0.03207
  3 Pt    0.00250   -0.00144   -0.10030
  4 Pt   -0.00250   -0.00144   -0.10030
  5 Pt   -0.00000    0.04501   -0.21327
  6 Pt    0.00000   -0.00950   -0.03207
  7 Pt    0.03898   -0.02250   -0.21327
  8 Pt   -0.03898   -0.02250   -0.21327
  9 Pt   -0.00000    0.00857    0.02495
 10 Pt    0.01854    0.01070   -0.00899
 11 Pt   -0.01854    0.01070   -0.00899
 12 Pt    0.00595   -0.00344   -0.04537
 13 Pt   -0.00000   -0.02141   -0.00899
 14 Pt   -0.00595   -0.00344   -0.04537
 15 Pt   -0.00742   -0.00429    0.02495
 16 Pt    0.00742   -0.00429    0.02495
 17 Pt   -0.00000    0.00687   -0.04537
 18 Pt    0.00000    0.00000    0.98196
 19 Pt    0.41026   -0.00243   -0.00637
 20 Pt   -0.41026   -0.00243   -0.00637
 21 Pt    0.20302    0.35651   -0.00637
 22 Pt    0.00000    0.00000    0.09601
 23 Pt   -0.20302    0.35651   -0.00637
 24 Pt   -0.20723   -0.35408   -0.00637
 25 Pt    0.20723   -0.35408   -0.00637
 26 Pt    0.00000    0.00000    0.09513
 27 O    -0.00000    0.00000    0.03996
 28 C    -0.00000   -0.00000    0.03388

Timing:                                      incl.     excl.
-------------------------------------------------------------------
Density initialized from wave functions:     4.426     3.865   0.2% |
 Symmetrize density:                         0.560     0.560   0.0% |
Forces:                                     13.132    13.132   0.7% |
Hamiltonian:                                 3.399     0.019   0.0% |
 Atomic:                                     1.832     0.916   0.1% |
  XC Correction:                             0.916     0.916   0.1% |
 Calculate atomic Hamiltonians:              0.456     0.456   0.0% |
 Communicate:                                0.012     0.012   0.0% |
 Initialize Hamiltonian:                     0.000     0.000   0.0% |
 Poisson:                                    0.005     0.005   0.0% |
 XC 3D grid:                                 1.075     1.075   0.1% |
LCAO initialization:                        27.998     0.315   0.0% |
 LCAO eigensolver:                           4.167     0.002   0.0% |
  Calculate projections:                     0.012     0.012   0.0% |
  DenseAtomicCorrection:                     0.014     0.014   0.0% |
  Distribute overlap matrix:                 0.663     0.663   0.0% |
  Orbital Layouts:                           0.476     0.476   0.0% |
  Potential matrix:                          2.954     2.954   0.2% |
  Sum over cells:                            0.046     0.046   0.0% |
 LCAO to grid:                              23.183    23.183   1.3% ||
 Set positions (LCAO WFS):                   0.332     0.126   0.0% |
  Basic WFS set positions:                   0.004     0.004   0.0% |
  Basis functions set positions:             0.000     0.000   0.0% |
  P tci:                                     0.125     0.125   0.0% |
  ST tci:                                    0.044     0.044   0.0% |
  mktci:                                     0.033     0.033   0.0% |
PWDescriptor:                                0.031     0.031   0.0% |
Redistribute:                                0.016     0.016   0.0% |
SCF-cycle:                                1745.069     1.955   0.1% |
 Davidson:                                1583.868   245.690  13.6% |----|
  Apply H:                                 132.915   128.921   7.1% |--|
   HMM T:                                    3.995     3.995   0.2% |
  Subspace diag:                           237.028     0.101   0.0% |
   calc_h_matrix:                          163.409    30.844   1.7% ||
    Apply H:                               132.566   128.520   7.1% |--|
     HMM T:                                  4.045     4.045   0.2% |
   diagonalize:                             21.332    21.332   1.2% |
   rotate_psi:                              52.187    52.187   2.9% ||
  calc. matrices:                          472.678   207.642  11.5% |----|
   Apply H:                                265.036   257.077  14.2% |-----|
    HMM T:                                   7.959     7.959   0.4% |
  diagonalize:                             388.556   388.556  21.5% |--------|
  rotate_psi:                              107.000   107.000   5.9% |-|
 Density:                                   93.629     0.003   0.0% |
  Atomic density matrices:                   1.017     1.017   0.1% |
  Mix:                                      13.542    13.542   0.7% |
  Multipole moments:                         0.022     0.022   0.0% |
  Pseudo density:                           79.045    67.325   3.7% ||
   Symmetrize density:                      11.720    11.720   0.6% |
 Hamiltonian:                               59.989     0.353   0.0% |
  Atomic:                                   32.420    16.132   0.9% |
   XC Correction:                           16.289    16.289   0.9% |
  Calculate atomic Hamiltonians:             7.860     7.860   0.4% |
  Communicate:                               0.309     0.309   0.0% |
  Poisson:                                   0.110     0.110   0.0% |
  XC 3D grid:                               18.937    18.937   1.0% |
 Orthonormalize:                             5.628     0.006   0.0% |
  calc_s_matrix:                             0.823     0.823   0.0% |
  inverse-cholesky:                          0.455     0.455   0.0% |
  projections:                               2.909     2.909   0.2% |
  rotate_psi_s:                              1.435     1.435   0.1% |
Set symmetry:                                0.003     0.003   0.0% |
Other:                                      13.816    13.816   0.8% |
-------------------------------------------------------------------
Total:                                              1807.890 100.0%

Memory usage: 655.95 MiB
Date: Fri Feb 24 15:29:16 2023
