
  ___ ___ ___ _ _ _  
 |   |   |_  | | | | 
 | | | | | . | | | | 
 |__ |  _|___|_____|  22.8.0
 |___|_|             

User:   nicog@vera13-3
Date:   Fri Feb 24 13:36:50 2023
Arch:   x86_64
Pid:    2953712
CWD:    /cephyr/users/nicog/Vera/Computational_Materials_2023/A4
Python: 3.10.4
gpaw:   /apps/Arch/software/GPAW/22.8.0-foss-2022a/lib/python3.10/site-packages/gpaw
_gpaw:  /apps/Arch/software/GPAW/22.8.0-foss-2022a/lib/python3.10/site-packages/
        _gpaw.cpython-310-x86_64-linux-gnu.so
ase:    /apps/Arch/software/ASE/3.22.1-foss-2022a/lib/python3.10/site-packages/ase (version 3.22.1)
numpy:  /apps/Arch/software/SciPy-bundle/2022.05-foss-2022a/lib/python3.10/site-packages/numpy (version 1.22.3)
scipy:  /apps/Arch/software/SciPy-bundle/2022.05-foss-2022a/lib/python3.10/site-packages/scipy (version 1.8.1)
libxc:  5.2.3
units:  Angstrom and eV
cores: 16
OpenMP: False
OMP_NUM_THREADS: 1

Input parameters:
  kpts: [4 4 1]
  mode: {ecut: 450.00000000000006,
         name: pw}
  spinpol: True
  xc: PBE

System changes: positions, numbers, cell, pbc, initial_charges, initial_magmoms 

Initialize ...

species:
  Pt:
    name: Platinum
    id: 5ed695806aff0c961dba1a84acd7f4b2
    Z: 78.0
    valence: 16
    core: 62
    charge: 0.0
    file: /apps/Common/software/GPAW-setups/0.9.20000/Pt.PBE.gz
    compensation charges: {type: gauss,
                           rc: 0.41,
                           lmax: 2}
    cutoffs: {filter: 2.26,
              core: 2.26}
    valence states:
      #              energy  rcut
      - 6s(1.00)    -5.628   1.307
      - 5p(6.00)   -56.051   1.371
      - 6p(0.00)    -0.845   1.371
      - 5d(9.00)    -6.153   1.307
      -  s          21.583   1.307
      -  d          21.058   1.307
  
    # Using partial waves for Pt as LCAO basis

  O:
    name: Oxygen
    id: 32ecd46bf208036f09c70b0ec9a88b78
    Z: 8.0
    valence: 6
    core: 2
    charge: 0.0
    file: /apps/Common/software/GPAW-setups/0.9.20000/O.PBE.gz
    compensation charges: {type: gauss,
                           rc: 0.21,
                           lmax: 2}
    cutoffs: {filter: 1.17,
              core: 0.83}
    valence states:
      #              energy  rcut
      - 2s(2.00)   -23.961   0.688
      - 2p(4.00)    -9.029   0.598
      -  s           3.251   0.688
      -  p          18.182   0.598
      -  d           0.000   0.619
  
    # Using partial waves for O as LCAO basis

Reference energy: -13512175.647022  # eV

Spin-polarized calculation.
Magnetic moment: 0.000000

Convergence criteria:
 Maximum [total energy] change in last 3 cyles: 0.0005 eV / electron
 Maximum integral of absolute [dens]ity change: 0.0001 electrons / valence electron
 Maximum integral of absolute [eigenst]ate change: 4e-08 eV^2 / valence electron
 Maximum number of scf [iter]ations: 333
 (Square brackets indicate name in SCF output, whereas a 'c' in
 the SCF output indicates the quantity has converged.)

Symmetries present (total): 2

  ( 1  0  0)  ( 0  1  0)
  ( 0  1  0)  ( 1  0  0)
  ( 0  0  1)  ( 0  0  1)

16 k-points: 4 x 4 x 1 Monkhorst-Pack grid
6 k-points in the irreducible part of the Brillouin zone
       k-points in crystal coordinates                weights
   0:     0.12500000   -0.12500000    0.00000000          2/16
   1:     0.12500000    0.12500000    0.00000000          2/16
   2:     0.37500000   -0.37500000    0.00000000          2/16
   3:     0.37500000   -0.12500000    0.00000000          4/16
   4:     0.37500000    0.12500000    0.00000000          4/16
   5:     0.37500000    0.37500000    0.00000000          2/16

Wave functions: Plane wave expansion
  Cutoff energy: 450.000 eV
  Number of coefficients (min, max): 22030, 22077
  Pulay-stress correction: 0.000000 eV/Ang^3 (de/decut=0.000000)
  Using FFTW library
  ScaLapack parameters: grid=1x1, blocksize=None
  Wavefunction extrapolation:
    Improved wavefunction reuse through dual PAW basis 

Occupation numbers: Fermi-Dirac:
  width: 0.1000  # eV
 

Eigensolver
   Davidson(niter=2) 

Densities:
  Coarse grid: 42*42*84 grid
  Fine grid: 84*84*168 grid
  Total Charge: 0.000000 

Density mixing:
  Method: difference
  Backend: pulay
  Linear mixing parameter: 0.05
  old densities: 5
  Damping of long wavelength oscillations: 50 

Hamiltonian:
  XC and Coulomb potentials evaluated on a 84*84*168 grid
  Using the PBE Exchange-Correlation functional
  External potential:
    NoExternalPotential
 

XC parameters: PBE with 2 nearest neighbor stencil

Memory estimate:
  Process memory now: 545.80 MiB
  Calculator: 665.31 MiB
    Density: 10.58 MiB
      Arrays: 4.95 MiB
      Localized functions: 3.65 MiB
      Mixer: 1.98 MiB
    Hamiltonian: 3.76 MiB
      Arrays: 3.67 MiB
      XC: 0.00 MiB
      Poisson: 0.00 MiB
      vbar: 0.09 MiB
    Wavefunctions: 650.97 MiB
      Arrays psit_nG: 539.66 MiB
      Eigensolver: 102.51 MiB
      Projections: 1.52 MiB
      Projectors: 1.26 MiB
      PW-descriptor: 6.00 MiB

Total number of cores used: 16
Parallelization over k-points: 2
Domain decomposition: 2 x 2 x 2

Number of atoms: 28
Number of atomic orbitals: 328
Number of bands in calculation: 267
Number of valence electrons: 438
Bands to converge: occupied

... initialized

Initializing position-dependent things.

Density initialized from atomic densities
Creating initial wave functions:
  267 bands from LCAO basis set

                                            
                                            
                                            
                                            
                                            
                                            
                 Pt     Pt     Pt           
           OPt     Pt     Pt                
                  Pt     Pt    Pt           
       Pt    PPt    PPt    Pt               
                                            
        Pt     Pt    PPt    Pt    Pt        
                                            
                Pt     Pt     Pt            
           Pt     Pt     Pt                 
                                            
                                            
                                            
                                            

Positions:
   0 Pt     1.402546    0.809760    6.000000    ( 0.0000,  0.0000,  0.0000)
   1 Pt     4.207639    0.809760    6.000000    ( 0.0000,  0.0000,  0.0000)
   2 Pt     7.012732    0.809760    6.000000    ( 0.0000,  0.0000,  0.0000)
   3 Pt     2.805093    3.239042    6.000000    ( 0.0000,  0.0000,  0.0000)
   4 Pt     5.610185    3.239042    6.000000    ( 0.0000,  0.0000,  0.0000)
   5 Pt     8.415278    3.239042    6.000000    ( 0.0000,  0.0000,  0.0000)
   6 Pt     4.207639    5.668323    6.000000    ( 0.0000,  0.0000,  0.0000)
   7 Pt     7.012732    5.668323    6.000000    ( 0.0000,  0.0000,  0.0000)
   8 Pt     9.817824    5.668323    6.000000    ( 0.0000,  0.0000,  0.0000)
   9 Pt    -0.000000    1.619521    8.290349    ( 0.0000,  0.0000,  0.0000)
  10 Pt     2.805093    1.619521    8.290349    ( 0.0000,  0.0000,  0.0000)
  11 Pt     5.610185    1.619521    8.290349    ( 0.0000,  0.0000,  0.0000)
  12 Pt     1.402546    4.048802    8.290349    ( 0.0000,  0.0000,  0.0000)
  13 Pt     4.207639    4.048802    8.290349    ( 0.0000,  0.0000,  0.0000)
  14 Pt     7.012732    4.048802    8.290349    ( 0.0000,  0.0000,  0.0000)
  15 Pt     2.805093    6.478084    8.290349    ( 0.0000,  0.0000,  0.0000)
  16 Pt     5.610185    6.478084    8.290349    ( 0.0000,  0.0000,  0.0000)
  17 Pt     8.415278    6.478084    8.290349    ( 0.0000,  0.0000,  0.0000)
  18 Pt     0.000000    0.000000   10.580697    ( 0.0000,  0.0000,  0.0000)
  19 Pt     2.805093    0.000000   10.580697    ( 0.0000,  0.0000,  0.0000)
  20 Pt     5.610185    0.000000   10.580697    ( 0.0000,  0.0000,  0.0000)
  21 Pt     1.402546    2.429281   10.580697    ( 0.0000,  0.0000,  0.0000)
  22 Pt     4.207639    2.429281   10.580697    ( 0.0000,  0.0000,  0.0000)
  23 Pt     7.012732    2.429281   10.580697    ( 0.0000,  0.0000,  0.0000)
  24 Pt     2.805093    4.858563   10.580697    ( 0.0000,  0.0000,  0.0000)
  25 Pt     5.610185    4.858563   10.580697    ( 0.0000,  0.0000,  0.0000)
  26 Pt     8.415278    4.858563   10.580697    ( 0.0000,  0.0000,  0.0000)
  27 O      1.402546    0.809760   11.780697    ( 0.0000,  0.0000,  0.0000)

Unit cell:
           periodic     x           y           z      points  spacing
  1. axis:    yes    8.415278    0.000000    0.000000    42     0.1735
  2. axis:    yes    4.207639    7.287844    0.000000    42     0.1735
  3. axis:    yes    0.000000    0.000000   16.580697    84     0.1974

  Lengths:   8.415278   8.415278  16.580697
  Angles:   90.000000  90.000000  60.000000

Effective grid spacing dv^(1/3) = 0.1900

     iter     time        total  log10-change:  magmom
                         energy  eigst   dens
iter:   1 13:37:36  -179.506078                  +0.0000
iter:   2 13:37:51  -176.723627  -1.21  -1.40    +0.0000
iter:   3 13:38:06  -173.576636  -1.69  -1.45    +0.0000
iter:   4 13:38:22  -170.601662  -1.85  -1.52    +0.0000
iter:   5 13:38:37  -168.029487  -2.05  -1.64    -0.0000
iter:   6 13:38:53  -167.441816  -2.54  -1.85    -0.0000
iter:   7 13:39:08  -167.360239  -2.39  -2.01    -0.0000
iter:   8 13:39:23  -167.341024c -3.52  -2.23    -0.0000
iter:   9 13:39:39  -167.264793c -2.76  -2.28    -0.0000
iter:  10 13:39:54  -167.278524c -3.58  -2.57    -0.0000
iter:  11 13:40:10  -167.261233c -3.96  -2.68    -0.0000
iter:  12 13:40:25  -167.253577c -4.26  -2.77    -0.0000
iter:  13 13:40:40  -167.247588c -3.85  -2.89    -0.0000
iter:  14 13:40:56  -167.247467c -4.76  -3.25    -0.0000
iter:  15 13:41:11  -167.247582c -5.05  -3.31    -0.0000
iter:  16 13:41:26  -167.249567c -5.04  -3.42    -0.0000
iter:  17 13:41:42  -167.249875c -5.63  -3.44    -0.0000
iter:  18 13:41:57  -167.249739c -6.15  -3.44    -0.0000
iter:  19 13:42:13  -167.250029c -5.90  -3.49    -0.0000
iter:  20 13:42:28  -167.250293c -5.41  -3.54    -0.0000
iter:  21 13:42:43  -167.250165c -5.84  -3.93    -0.0000
iter:  22 13:42:59  -167.250096c -6.23  -4.26c   -0.0000
iter:  23 13:43:14  -167.249996c -6.60  -4.33c   -0.0000
iter:  24 13:43:29  -167.249959c -7.08  -4.65c   -0.0000
iter:  25 13:43:45  -167.249922c -7.47c -4.73c   -0.0000

Converged after 25 iterations.

Dipole moment: (-1.886798, -1.089343, -0.030007) |e|*Ang

Total magnetic moment: (0.000000, 0.000000, -0.000000)
Local magnetic moments:
   0 Pt ( 0.000000,  0.000000,  0.000000)
   1 Pt ( 0.000000,  0.000000,  0.000000)
   2 Pt ( 0.000000,  0.000000, -0.000000)
   3 Pt ( 0.000000,  0.000000,  0.000000)
   4 Pt ( 0.000000,  0.000000,  0.000000)
   5 Pt ( 0.000000,  0.000000,  0.000000)
   6 Pt ( 0.000000,  0.000000, -0.000000)
   7 Pt ( 0.000000,  0.000000,  0.000000)
   8 Pt ( 0.000000,  0.000000, -0.000000)
   9 Pt ( 0.000000,  0.000000, -0.000000)
  10 Pt ( 0.000000,  0.000000, -0.000000)
  11 Pt ( 0.000000,  0.000000, -0.000000)
  12 Pt ( 0.000000,  0.000000, -0.000000)
  13 Pt ( 0.000000,  0.000000, -0.000000)
  14 Pt ( 0.000000,  0.000000, -0.000000)
  15 Pt ( 0.000000,  0.000000, -0.000000)
  16 Pt ( 0.000000,  0.000000, -0.000000)
  17 Pt ( 0.000000,  0.000000, -0.000000)
  18 Pt ( 0.000000,  0.000000, -0.000000)
  19 Pt ( 0.000000,  0.000000,  0.000000)
  20 Pt ( 0.000000,  0.000000, -0.000000)
  21 Pt ( 0.000000,  0.000000,  0.000000)
  22 Pt ( 0.000000,  0.000000, -0.000000)
  23 Pt ( 0.000000,  0.000000,  0.000000)
  24 Pt ( 0.000000,  0.000000, -0.000000)
  25 Pt ( 0.000000,  0.000000,  0.000000)
  26 Pt ( 0.000000,  0.000000,  0.000000)
  27 O  ( 0.000000,  0.000000,  0.000000)

Energy contributions relative to reference atoms: (reference = -13512175.647022)

Kinetic:       -287.921738
Potential:     +219.173148
External:        +0.000000
XC:             -82.915546
Entropy (-ST):   -1.694585
Local:          -14.738493
--------------------------
Free energy:   -168.097214
Extrapolated:  -167.249922

Spin contamination: 0.000000 electrons
Showing only first 2 kpts
                      Up                     Down
 Kpt  Band  Eigenvalues  Occupancy  Eigenvalues  Occupancy
  0   217      1.31978    0.75967      1.31978    0.75967
  0   218      1.36370    0.67078      1.36370    0.67078
  0   219      1.38746    0.61635      1.38746    0.61635
  0   220      1.39956    0.58737      1.39956    0.58737

  1   217      1.21710    0.89823      1.21710    0.89823
  1   218      1.22294    0.89276      1.22294    0.89276
  1   219      1.25849    0.85369      1.25849    0.85369
  1   220      1.25858    0.85357      1.25858    0.85357


Fermi level: 1.43487

No gap

Forces in eV/Ang:
  0 Pt   -0.00553   -0.00319   -0.04759
  1 Pt    0.02775    0.00960   -0.08697
  2 Pt   -0.02872    0.00856   -0.09558
  3 Pt    0.02219    0.01923   -0.08697
  4 Pt    0.00096    0.00055   -0.11153
  5 Pt   -0.02527    0.02781   -0.09646
  6 Pt   -0.00695   -0.02915   -0.09558
  7 Pt    0.01145   -0.03579   -0.09646
  8 Pt   -0.00610   -0.00352   -0.40757
  9 Pt   -0.04561    0.02125   -0.33297
 10 Pt    0.04923    0.02842   -0.33796
 11 Pt    0.00171    0.02628    0.01139
 12 Pt    0.00020   -0.10391    0.43112
 13 Pt    0.02361   -0.01166    0.01139
 14 Pt   -0.02493   -0.01439    0.01560
 15 Pt    0.09779    0.05646    0.42252
 16 Pt   -0.00440   -0.05012   -0.33297
 17 Pt   -0.08989    0.05213    0.43112
 18 Pt   -1.21171   -0.69958    0.01668
 19 Pt    1.18065   -0.67732    0.02541
 20 Pt    0.00962   -0.03329    0.03357
 21 Pt    0.00375    1.36114    0.02541
 22 Pt    0.39463    0.22784   -0.02137
 23 Pt   -0.39099    0.22884   -0.03185
 24 Pt   -0.02402    0.02498    0.03357
 25 Pt    0.00269   -0.45303   -0.03185
 26 Pt    0.03470    0.02003    0.02066
 27 O     0.00432    0.00250    0.76992

System changes: positions 

Initializing position-dependent things.

Density initialized from wave functions
                                            
                                            
                                            
                                            
                                            
                                            
                                            
           O     Pt     Pt     Pt           
            Pt     Pt     Pt                
       Pt     Pt  Pt Pt  Pt    Pt           
             Pt     Pt     Pt               
        Pt     Pt     Pt                    
                     Pt     Pt    Pt        
                Pt     Pt     Pt            
                                            
           Pt     Pt     Pt                 
                                            
                                            
                                            
                                            

Positions:
   0 Pt     1.402546    0.809760    6.000000    ( 0.0000,  0.0000,  0.0000)
   1 Pt     4.207639    0.809760    6.000000    ( 0.0000,  0.0000,  0.0000)
   2 Pt     7.012732    0.809760    6.000000    ( 0.0000,  0.0000,  0.0000)
   3 Pt     2.805093    3.239042    6.000000    ( 0.0000,  0.0000,  0.0000)
   4 Pt     5.610185    3.239042    6.000000    ( 0.0000,  0.0000,  0.0000)
   5 Pt     8.415278    3.239042    6.000000    ( 0.0000,  0.0000,  0.0000)
   6 Pt     4.207639    5.668323    6.000000    ( 0.0000,  0.0000,  0.0000)
   7 Pt     7.012732    5.668323    6.000000    ( 0.0000,  0.0000,  0.0000)
   8 Pt     9.817824    5.668323    6.000000    ( 0.0000,  0.0000,  0.0000)
   9 Pt    -0.000000    1.619521    8.290349    ( 0.0000,  0.0000,  0.0000)
  10 Pt     2.805093    1.619521    8.290349    ( 0.0000,  0.0000,  0.0000)
  11 Pt     5.610185    1.619521    8.290349    ( 0.0000,  0.0000,  0.0000)
  12 Pt     1.402546    4.048802    8.290349    ( 0.0000,  0.0000,  0.0000)
  13 Pt     4.207639    4.048802    8.290349    ( 0.0000,  0.0000,  0.0000)
  14 Pt     7.012732    4.048802    8.290349    ( 0.0000,  0.0000,  0.0000)
  15 Pt     2.805093    6.478084    8.290349    ( 0.0000,  0.0000,  0.0000)
  16 Pt     5.610185    6.478084    8.290349    ( 0.0000,  0.0000,  0.0000)
  17 Pt     8.415278    6.478084    8.290349    ( 0.0000,  0.0000,  0.0000)
  18 Pt     0.000000    0.000000   10.580697    ( 0.0000,  0.0000,  0.0000)
  19 Pt     2.805093    0.000000   10.580697    ( 0.0000,  0.0000,  0.0000)
  20 Pt     5.610185    0.000000   10.580697    ( 0.0000,  0.0000,  0.0000)
  21 Pt     1.402546    2.429281   10.580697    ( 0.0000,  0.0000,  0.0000)
  22 Pt     4.207639    2.429281   10.580697    ( 0.0000,  0.0000,  0.0000)
  23 Pt     7.012732    2.429281   10.580697    ( 0.0000,  0.0000,  0.0000)
  24 Pt     2.805093    4.858563   10.580697    ( 0.0000,  0.0000,  0.0000)
  25 Pt     5.610185    4.858563   10.580697    ( 0.0000,  0.0000,  0.0000)
  26 Pt     8.415278    4.858563   10.580697    ( 0.0000,  0.0000,  0.0000)
  27 O      1.404793    0.811058   12.180689    ( 0.0000,  0.0000,  0.0000)

Unit cell:
           periodic     x           y           z      points  spacing
  1. axis:    yes    8.415278    0.000000    0.000000    42     0.1735
  2. axis:    yes    4.207639    7.287844    0.000000    42     0.1735
  3. axis:    yes    0.000000    0.000000   16.580697    84     0.1974

  Lengths:   8.415278   8.415278  16.580697
  Angles:   90.000000  90.000000  60.000000

Effective grid spacing dv^(1/3) = 0.1900

     iter     time        total  log10-change:  magmom
                         energy  eigst   dens
iter:   1 13:44:05  -181.336574  -1.13           -0.0000
iter:   2 13:44:21  -180.228467  -1.46  -1.64    -0.0000
iter:   3 13:44:36  -169.259292  -1.87  -1.56    -0.0000
iter:   4 13:44:52  -168.155761  -2.07  -1.93    -0.0000
iter:   5 13:45:07  -167.044067  -2.98  -2.13    -0.0000
iter:   6 13:45:22  -166.874020  -3.46  -2.44    -0.0000
iter:   7 13:45:38  -166.766004  -3.09  -2.55    -0.0000
iter:   8 13:45:53  -166.697094c -3.25  -2.60    -0.0000
iter:   9 13:46:09  -166.666275c -3.80  -2.74    -0.0000
iter:  10 13:46:24  -166.658660c -4.70  -2.93    -0.0000
iter:  11 13:46:39  -166.652294c -4.59  -3.02    -0.0000
iter:  12 13:46:55  -166.651063c -4.48  -3.11    -0.0000
iter:  13 13:47:10  -166.648716c -5.14  -3.32    -0.0000
iter:  14 13:47:26  -166.648726c -5.53  -3.40    -0.0000
iter:  15 13:47:41  -166.648188c -5.64  -3.54    -0.0000
iter:  16 13:47:56  -166.648216c -5.93  -3.74    -0.0000
iter:  17 13:48:12  -166.648386c -6.38  -3.91    -0.0000
iter:  18 13:48:27  -166.648599c -6.39  -4.05c   -0.0000
iter:  19 13:48:42  -166.648160c -6.61  -4.05c   -0.0000
iter:  20 13:48:58  -166.648247c -7.00  -4.18c   -0.0000
iter:  21 13:49:13  -166.648124c -7.04  -4.35c   -0.0000
iter:  22 13:49:29  -166.648189c -7.52c -4.51c   -0.0000

Converged after 22 iterations.

Dipole moment: (-1.721100, -0.993677, -0.225980) |e|*Ang

Total magnetic moment: (0.000000, 0.000000, -0.000000)
Local magnetic moments:
   0 Pt ( 0.000000,  0.000000, -0.000000)
   1 Pt ( 0.000000,  0.000000, -0.000000)
   2 Pt ( 0.000000,  0.000000, -0.000000)
   3 Pt ( 0.000000,  0.000000, -0.000000)
   4 Pt ( 0.000000,  0.000000, -0.000000)
   5 Pt ( 0.000000,  0.000000, -0.000000)
   6 Pt ( 0.000000,  0.000000, -0.000000)
   7 Pt ( 0.000000,  0.000000, -0.000000)
   8 Pt ( 0.000000,  0.000000,  0.000000)
   9 Pt ( 0.000000,  0.000000, -0.000000)
  10 Pt ( 0.000000,  0.000000, -0.000000)
  11 Pt ( 0.000000,  0.000000, -0.000000)
  12 Pt ( 0.000000,  0.000000, -0.000000)
  13 Pt ( 0.000000,  0.000000, -0.000000)
  14 Pt ( 0.000000,  0.000000,  0.000000)
  15 Pt ( 0.000000,  0.000000, -0.000000)
  16 Pt ( 0.000000,  0.000000, -0.000000)
  17 Pt ( 0.000000,  0.000000, -0.000000)
  18 Pt ( 0.000000,  0.000000,  0.000000)
  19 Pt ( 0.000000,  0.000000, -0.000000)
  20 Pt ( 0.000000,  0.000000,  0.000000)
  21 Pt ( 0.000000,  0.000000, -0.000000)
  22 Pt ( 0.000000,  0.000000, -0.000000)
  23 Pt ( 0.000000,  0.000000,  0.000000)
  24 Pt ( 0.000000,  0.000000,  0.000000)
  25 Pt ( 0.000000,  0.000000,  0.000000)
  26 Pt ( 0.000000,  0.000000,  0.000000)
  27 O  ( 0.000000,  0.000000,  0.000000)

Energy contributions relative to reference atoms: (reference = -13512175.647022)

Kinetic:       -312.355467
Potential:     +240.170883
External:        +0.000000
XC:             -78.938670
Entropy (-ST):   -1.768665
Local:          -14.640602
--------------------------
Free energy:   -167.532521
Extrapolated:  -166.648189

Spin contamination: 0.000000 electrons
Showing only first 2 kpts
                      Up                     Down
 Kpt  Band  Eigenvalues  Occupancy  Eigenvalues  Occupancy
  0   217      1.26001    0.72579      1.26001    0.72579
  0   218      1.28451    0.67444      1.28451    0.67444
  0   219      1.31550    0.60312      1.31550    0.60312
  0   220      1.32184    0.58785      1.32184    0.58785

  1   217      1.13566    0.90176      1.13566    0.90176
  1   218      1.15392    0.88435      1.15392    0.88435
  1   219      1.18554    0.84789      1.18554    0.84789
  1   220      1.19233    0.83892      1.19233    0.83892


Fermi level: 1.35735

No gap

Forces in eV/Ang:
  0 Pt   -0.00679   -0.00392   -0.03968
  1 Pt    0.02593    0.03219   -0.06991
  2 Pt   -0.02560    0.03269   -0.07639
  3 Pt    0.04084    0.00636   -0.06991
  4 Pt   -0.00047   -0.00027   -0.10952
  5 Pt   -0.04261    0.00928   -0.07823
  6 Pt    0.01551   -0.03852   -0.07639
  7 Pt   -0.01327   -0.04154   -0.07823
  8 Pt   -0.00659   -0.00380   -0.25985
  9 Pt   -0.02036    0.00259   -0.20672
 10 Pt    0.01877    0.01084   -0.20105
 11 Pt    0.00271    0.03314   -0.00926
 12 Pt    0.00287   -0.16531    0.42714
 13 Pt    0.03005   -0.01422   -0.00926
 14 Pt   -0.02949   -0.01702   -0.00400
 15 Pt    0.14776    0.08531    0.40785
 16 Pt   -0.00794   -0.01892   -0.20672
 17 Pt   -0.14173    0.08515    0.42714
 18 Pt   -0.04943   -0.02854    1.00153
 19 Pt    0.03444   -0.00961    1.00909
 20 Pt    0.00571   -0.02530    0.04591
 21 Pt    0.00890    0.03463    1.00909
 22 Pt    0.28504    0.16457    0.00617
 23 Pt   -0.28671    0.16690   -0.00667
 24 Pt   -0.01906    0.01760    0.04591
 25 Pt    0.00118   -0.33174   -0.00667
 26 Pt    0.02989    0.01726    0.03419
 27 O     0.00174    0.00100   -2.89683

System changes: positions 

Initializing position-dependent things.

Density initialized from wave functions
                                            
                                            
                                            
                                            
                                            
                                            
                 Pt     Pt     Pt           
           OPt     Pt     Pt                
                  Pt     Pt    Pt           
       Pt    PPt    PPt    Pt               
                                            
        Pt     Pt    PPt    Pt    Pt        
                                            
                Pt     Pt     Pt            
           Pt     Pt     Pt                 
                                            
                                            
                                            
                                            

Positions:
   0 Pt     1.402546    0.809760    6.000000    ( 0.0000,  0.0000,  0.0000)
   1 Pt     4.207639    0.809760    6.000000    ( 0.0000,  0.0000,  0.0000)
   2 Pt     7.012732    0.809760    6.000000    ( 0.0000,  0.0000,  0.0000)
   3 Pt     2.805093    3.239042    6.000000    ( 0.0000,  0.0000,  0.0000)
   4 Pt     5.610185    3.239042    6.000000    ( 0.0000,  0.0000,  0.0000)
   5 Pt     8.415278    3.239042    6.000000    ( 0.0000,  0.0000,  0.0000)
   6 Pt     4.207639    5.668323    6.000000    ( 0.0000,  0.0000,  0.0000)
   7 Pt     7.012732    5.668323    6.000000    ( 0.0000,  0.0000,  0.0000)
   8 Pt     9.817824    5.668323    6.000000    ( 0.0000,  0.0000,  0.0000)
   9 Pt    -0.000000    1.619521    8.290349    ( 0.0000,  0.0000,  0.0000)
  10 Pt     2.805093    1.619521    8.290349    ( 0.0000,  0.0000,  0.0000)
  11 Pt     5.610185    1.619521    8.290349    ( 0.0000,  0.0000,  0.0000)
  12 Pt     1.402546    4.048802    8.290349    ( 0.0000,  0.0000,  0.0000)
  13 Pt     4.207639    4.048802    8.290349    ( 0.0000,  0.0000,  0.0000)
  14 Pt     7.012732    4.048802    8.290349    ( 0.0000,  0.0000,  0.0000)
  15 Pt     2.805093    6.478084    8.290349    ( 0.0000,  0.0000,  0.0000)
  16 Pt     5.610185    6.478084    8.290349    ( 0.0000,  0.0000,  0.0000)
  17 Pt     8.415278    6.478084    8.290349    ( 0.0000,  0.0000,  0.0000)
  18 Pt     0.000000    0.000000   10.580697    ( 0.0000,  0.0000,  0.0000)
  19 Pt     2.805093    0.000000   10.580697    ( 0.0000,  0.0000,  0.0000)
  20 Pt     5.610185    0.000000   10.580697    ( 0.0000,  0.0000,  0.0000)
  21 Pt     1.402546    2.429281   10.580697    ( 0.0000,  0.0000,  0.0000)
  22 Pt     4.207639    2.429281   10.580697    ( 0.0000,  0.0000,  0.0000)
  23 Pt     7.012732    2.429281   10.580697    ( 0.0000,  0.0000,  0.0000)
  24 Pt     2.805093    4.858563   10.580697    ( 0.0000,  0.0000,  0.0000)
  25 Pt     5.610185    4.858563   10.580697    ( 0.0000,  0.0000,  0.0000)
  26 Pt     8.415278    4.858563   10.580697    ( 0.0000,  0.0000,  0.0000)
  27 O      1.403421    0.810265   11.843518    ( 0.0000,  0.0000,  0.0000)

Unit cell:
           periodic     x           y           z      points  spacing
  1. axis:    yes    8.415278    0.000000    0.000000    42     0.1735
  2. axis:    yes    4.207639    7.287844    0.000000    42     0.1735
  3. axis:    yes    0.000000    0.000000   16.580697    84     0.1974

  Lengths:   8.415278   8.415278  16.580697
  Angles:   90.000000  90.000000  60.000000

Effective grid spacing dv^(1/3) = 0.1900

     iter     time        total  log10-change:  magmom
                         energy  eigst   dens
iter:   1 13:49:49  -175.765211  -1.91           -0.0000
iter:   2 13:50:05  -175.599919  -1.54  -1.72    -0.0000
iter:   3 13:50:20  -170.778537  -1.84  -1.68    -0.0000
iter:   4 13:50:35  -167.692088  -2.95  -1.87    -0.0000
iter:   5 13:50:51  -167.455313  -3.23  -2.35    -0.0000
iter:   6 13:51:06  -167.336252  -3.46  -2.52    -0.0000
iter:   7 13:51:22  -167.324290c -3.67  -2.74    -0.0000
iter:   8 13:51:37  -167.292107c -3.96  -2.77    -0.0000
iter:   9 13:51:52  -167.270813c -3.91  -2.93    -0.0000
iter:  10 13:52:08  -167.268233c -4.98  -3.23    -0.0000
iter:  11 13:52:23  -167.267094c -5.09  -3.30    -0.0000
iter:  12 13:52:38  -167.267068c -5.43  -3.40    -0.0000
iter:  13 13:52:54  -167.267230c -5.22  -3.46    -0.0000
iter:  14 13:53:09  -167.266649c -5.89  -3.66    -0.0000
iter:  15 13:53:24  -167.266619c -6.74  -3.80    -0.0000
iter:  16 13:53:40  -167.266340c -6.24  -3.91    -0.0000
iter:  17 13:53:55  -167.266379c -6.55  -4.11c   -0.0000
iter:  18 13:54:11  -167.266369c -6.98  -4.28c   -0.0000
iter:  19 13:54:26  -167.266393c -6.81  -4.32c   -0.0000
iter:  20 13:54:41  -167.266440c -7.60c -4.53c   -0.0000

Converged after 20 iterations.

Dipole moment: (-1.858139, -1.072797, -0.056682) |e|*Ang

Total magnetic moment: (0.000000, 0.000000, -0.000000)
Local magnetic moments:
   0 Pt ( 0.000000,  0.000000,  0.000000)
   1 Pt ( 0.000000,  0.000000,  0.000000)
   2 Pt ( 0.000000,  0.000000, -0.000000)
   3 Pt ( 0.000000,  0.000000,  0.000000)
   4 Pt ( 0.000000,  0.000000,  0.000000)
   5 Pt ( 0.000000,  0.000000,  0.000000)
   6 Pt ( 0.000000,  0.000000, -0.000000)
   7 Pt ( 0.000000,  0.000000,  0.000000)
   8 Pt ( 0.000000,  0.000000, -0.000000)
   9 Pt ( 0.000000,  0.000000,  0.000000)
  10 Pt ( 0.000000,  0.000000,  0.000000)
  11 Pt ( 0.000000,  0.000000, -0.000000)
  12 Pt ( 0.000000,  0.000000, -0.000000)
  13 Pt ( 0.000000,  0.000000, -0.000000)
  14 Pt ( 0.000000,  0.000000,  0.000000)
  15 Pt ( 0.000000,  0.000000,  0.000000)
  16 Pt ( 0.000000,  0.000000,  0.000000)
  17 Pt ( 0.000000,  0.000000, -0.000000)
  18 Pt ( 0.000000,  0.000000,  0.000000)
  19 Pt ( 0.000000,  0.000000, -0.000000)
  20 Pt ( 0.000000,  0.000000, -0.000000)
  21 Pt ( 0.000000,  0.000000, -0.000000)
  22 Pt ( 0.000000,  0.000000, -0.000000)
  23 Pt ( 0.000000,  0.000000,  0.000000)
  24 Pt ( 0.000000,  0.000000, -0.000000)
  25 Pt ( 0.000000,  0.000000,  0.000000)
  26 Pt ( 0.000000,  0.000000, -0.000000)
  27 O  ( 0.000000,  0.000000, -0.000000)

Energy contributions relative to reference atoms: (reference = -13512175.647022)

Kinetic:       -294.734278
Potential:     +225.102292
External:        +0.000000
XC:             -82.085420
Entropy (-ST):   -1.703992
Local:          -14.697039
--------------------------
Free energy:   -168.118436
Extrapolated:  -167.266440

Spin contamination: 0.000000 electrons
Showing only first 2 kpts
                      Up                     Down
 Kpt  Band  Eigenvalues  Occupancy  Eigenvalues  Occupancy
  0   217      1.30820    0.76124      1.30820    0.76124
  0   218      1.35218    0.67255      1.35218    0.67255
  0   219      1.37694    0.61589      1.37694    0.61589
  0   220      1.38841    0.58841      1.38841    0.58841

  1   217      1.20422    0.90018      1.20422    0.90018
  1   218      1.21334    0.89169      1.21334    0.89169
  1   219      1.24744    0.85410      1.24744    0.85410
  1   220      1.24916    0.85194      1.24916    0.85194


Fermi level: 1.42415

No gap

Forces in eV/Ang:
  0 Pt   -0.00577   -0.00333   -0.04452
  1 Pt    0.02906    0.01431   -0.08200
  2 Pt   -0.02966    0.01338   -0.09046
  3 Pt    0.02692    0.01801   -0.08200
  4 Pt    0.00083    0.00048   -0.11222
  5 Pt   -0.02990    0.02559   -0.09154
  6 Pt   -0.00324   -0.03238   -0.09046
  7 Pt    0.00721   -0.03868   -0.09154
  8 Pt   -0.00598   -0.00345   -0.38838
  9 Pt   -0.04601    0.02056   -0.32144
 10 Pt    0.04882    0.02819   -0.32440
 11 Pt    0.00176    0.02700    0.00663
 12 Pt    0.00058   -0.12650    0.45020
 13 Pt    0.02426   -0.01198    0.00663
 14 Pt   -0.02528   -0.01460    0.01135
 15 Pt    0.11702    0.06756    0.43906
 16 Pt   -0.00520   -0.05012   -0.32144
 17 Pt   -0.10926    0.06376    0.45020
 18 Pt   -0.91991   -0.53111    0.24808
 19 Pt    0.89610   -0.51221    0.25267
 20 Pt    0.00926   -0.03713    0.04110
 21 Pt    0.00447    1.03215    0.25267
 22 Pt    0.38213    0.22062   -0.01231
 23 Pt   -0.37930    0.22166   -0.02361
 24 Pt   -0.02753    0.02658    0.04110
 25 Pt    0.00232   -0.43932   -0.02361
 26 Pt    0.03887    0.02244    0.02738
 27 O    -0.00128   -0.00074   -0.10184

System changes: positions 

Initializing position-dependent things.

Density initialized from wave functions
                                            
                                            
                                            
                                            
                                            
                                            
                 Pt     Pt     Pt           
           OPt     Pt     Pt                
                  Pt     Pt    Pt           
       Pt    PPt    PPt    Pt               
                                            
        Pt     Pt    PPt    Pt    Pt        
                                            
                Pt     Pt     Pt            
           Pt     Pt     Pt                 
                                            
                                            
                                            
                                            

Positions:
   0 Pt     1.402546    0.809760    6.000000    ( 0.0000,  0.0000,  0.0000)
   1 Pt     4.207639    0.809760    6.000000    ( 0.0000,  0.0000,  0.0000)
   2 Pt     7.012732    0.809760    6.000000    ( 0.0000,  0.0000,  0.0000)
   3 Pt     2.805093    3.239042    6.000000    ( 0.0000,  0.0000,  0.0000)
   4 Pt     5.610185    3.239042    6.000000    ( 0.0000,  0.0000,  0.0000)
   5 Pt     8.415278    3.239042    6.000000    ( 0.0000,  0.0000,  0.0000)
   6 Pt     4.207639    5.668323    6.000000    ( 0.0000,  0.0000,  0.0000)
   7 Pt     7.012732    5.668323    6.000000    ( 0.0000,  0.0000,  0.0000)
   8 Pt     9.817824    5.668323    6.000000    ( 0.0000,  0.0000,  0.0000)
   9 Pt    -0.000000    1.619521    8.290349    ( 0.0000,  0.0000,  0.0000)
  10 Pt     2.805093    1.619521    8.290349    ( 0.0000,  0.0000,  0.0000)
  11 Pt     5.610185    1.619521    8.290349    ( 0.0000,  0.0000,  0.0000)
  12 Pt     1.402546    4.048802    8.290349    ( 0.0000,  0.0000,  0.0000)
  13 Pt     4.207639    4.048802    8.290349    ( 0.0000,  0.0000,  0.0000)
  14 Pt     7.012732    4.048802    8.290349    ( 0.0000,  0.0000,  0.0000)
  15 Pt     2.805093    6.478084    8.290349    ( 0.0000,  0.0000,  0.0000)
  16 Pt     5.610185    6.478084    8.290349    ( 0.0000,  0.0000,  0.0000)
  17 Pt     8.415278    6.478084    8.290349    ( 0.0000,  0.0000,  0.0000)
  18 Pt     0.000000    0.000000   10.580697    ( 0.0000,  0.0000,  0.0000)
  19 Pt     2.805093    0.000000   10.580697    ( 0.0000,  0.0000,  0.0000)
  20 Pt     5.610185    0.000000   10.580697    ( 0.0000,  0.0000,  0.0000)
  21 Pt     1.402546    2.429281   10.580697    ( 0.0000,  0.0000,  0.0000)
  22 Pt     4.207639    2.429281   10.580697    ( 0.0000,  0.0000,  0.0000)
  23 Pt     7.012732    2.429281   10.580697    ( 0.0000,  0.0000,  0.0000)
  24 Pt     2.805093    4.858563   10.580697    ( 0.0000,  0.0000,  0.0000)
  25 Pt     5.610185    4.858563   10.580697    ( 0.0000,  0.0000,  0.0000)
  26 Pt     8.415278    4.858563   10.580697    ( 0.0000,  0.0000,  0.0000)
  27 O      1.403210    0.810144   11.835846    ( 0.0000,  0.0000,  0.0000)

Unit cell:
           periodic     x           y           z      points  spacing
  1. axis:    yes    8.415278    0.000000    0.000000    42     0.1735
  2. axis:    yes    4.207639    7.287844    0.000000    42     0.1735
  3. axis:    yes    0.000000    0.000000   16.580697    84     0.1974

  Lengths:   8.415278   8.415278  16.580697
  Angles:   90.000000  90.000000  60.000000

Effective grid spacing dv^(1/3) = 0.1900

     iter     time        total  log10-change:  magmom
                         energy  eigst   dens
iter:   1 13:55:02  -167.279938  -4.63           -0.0000
iter:   2 13:55:17  -167.286095  -4.40  -3.14    -0.0000
iter:   3 13:55:33  -167.272608c -4.68  -2.98    -0.0000
iter:   4 13:55:48  -167.267894c -5.73  -3.33    -0.0000
iter:   5 13:56:03  -167.267494c -6.37  -4.02c   -0.0000
iter:   6 13:56:19  -167.267487c -6.63  -4.25c   -0.0000
iter:   7 13:56:34  -167.267423c -6.71  -4.47c   -0.0000
iter:   8 13:56:50  -167.267379c -7.05  -4.59c   -0.0000
iter:   9 13:57:05  -167.267358c -7.88c -4.66c   -0.0000

Converged after 9 iterations.

Dipole moment: (-1.861345, -1.074648, -0.052828) |e|*Ang

Total magnetic moment: (0.000000, 0.000000, -0.000000)
Local magnetic moments:
   0 Pt ( 0.000000,  0.000000,  0.000000)
   1 Pt ( 0.000000,  0.000000, -0.000000)
   2 Pt ( 0.000000,  0.000000, -0.000000)
   3 Pt ( 0.000000,  0.000000, -0.000000)
   4 Pt ( 0.000000,  0.000000,  0.000000)
   5 Pt ( 0.000000,  0.000000,  0.000000)
   6 Pt ( 0.000000,  0.000000, -0.000000)
   7 Pt ( 0.000000,  0.000000,  0.000000)
   8 Pt ( 0.000000,  0.000000,  0.000000)
   9 Pt ( 0.000000,  0.000000, -0.000000)
  10 Pt ( 0.000000,  0.000000, -0.000000)
  11 Pt ( 0.000000,  0.000000, -0.000000)
  12 Pt ( 0.000000,  0.000000, -0.000000)
  13 Pt ( 0.000000,  0.000000, -0.000000)
  14 Pt ( 0.000000,  0.000000,  0.000000)
  15 Pt ( 0.000000,  0.000000, -0.000000)
  16 Pt ( 0.000000,  0.000000, -0.000000)
  17 Pt ( 0.000000,  0.000000, -0.000000)
  18 Pt ( 0.000000,  0.000000,  0.000000)
  19 Pt ( 0.000000,  0.000000, -0.000000)
  20 Pt ( 0.000000,  0.000000, -0.000000)
  21 Pt ( 0.000000,  0.000000, -0.000000)
  22 Pt ( 0.000000,  0.000000, -0.000000)
  23 Pt ( 0.000000,  0.000000,  0.000000)
  24 Pt ( 0.000000,  0.000000, -0.000000)
  25 Pt ( 0.000000,  0.000000,  0.000000)
  26 Pt ( 0.000000,  0.000000, -0.000000)
  27 O  ( 0.000000,  0.000000,  0.000000)

Energy contributions relative to reference atoms: (reference = -13512175.647022)

Kinetic:       -294.136296
Potential:     +224.599713
External:        +0.000000
XC:             -82.178149
Entropy (-ST):   -1.702851
Local:          -14.701200
--------------------------
Free energy:   -168.118784
Extrapolated:  -167.267358

Spin contamination: 0.000000 electrons
Showing only first 2 kpts
                      Up                     Down
 Kpt  Band  Eigenvalues  Occupancy  Eigenvalues  Occupancy
  0   217      1.30958    0.76117      1.30958    0.76117
  0   218      1.35360    0.67236      1.35360    0.67236
  0   219      1.37824    0.61596      1.37824    0.61596
  0   220      1.38979    0.58831      1.38979    0.58831

  1   217      1.20579    0.89998      1.20579    0.89998
  1   218      1.21456    0.89180      1.21456    0.89180
  1   219      1.24880    0.85407      1.24880    0.85407
  1   220      1.25031    0.85217      1.25031    0.85217


Fermi level: 1.42549

No gap

Forces in eV/Ang:
  0 Pt   -0.00577   -0.00333   -0.04772
  1 Pt    0.02832    0.01383   -0.08384
  2 Pt   -0.02894    0.01286   -0.09243
  3 Pt    0.02614    0.01761   -0.08384
  4 Pt    0.00084    0.00049   -0.11216
  5 Pt   -0.02911    0.02526   -0.09335
  6 Pt   -0.00334   -0.03150   -0.09243
  7 Pt    0.00732   -0.03784   -0.09335
  8 Pt   -0.00598   -0.00345   -0.39044
  9 Pt   -0.04318    0.01899   -0.31980
 10 Pt    0.04605    0.02659   -0.32296
 11 Pt    0.00181    0.02738    0.00589
 12 Pt    0.00049   -0.12228    0.44534
 13 Pt    0.02462   -0.01212    0.00589
 14 Pt   -0.02559   -0.01478    0.01047
 15 Pt    0.11339    0.06547    0.43461
 16 Pt   -0.00514   -0.04689   -0.31980
 17 Pt   -0.10566    0.06156    0.44534
 18 Pt   -0.95892   -0.55363    0.21698
 19 Pt    0.93377   -0.53380    0.22283
 20 Pt    0.00926   -0.03346    0.03997
 21 Pt    0.00461    1.07557    0.22283
 22 Pt    0.38412    0.22177   -0.01455
 23 Pt   -0.38147    0.22297   -0.02610
 24 Pt   -0.02435    0.02475    0.03997
 25 Pt    0.00236   -0.44185   -0.02610
 26 Pt    0.03563    0.02057    0.02630
 27 O    -0.00037   -0.00021    0.00041

Timing:                                      incl.     excl.
-------------------------------------------------------------------
Density initialized from wave functions:     2.418     2.301   0.2% |
 Symmetrize density:                         0.117     0.117   0.0% |
Forces:                                      8.271     8.271   0.7% |
Hamiltonian:                                 2.236     0.013   0.0% |
 Atomic:                                     1.226     0.614   0.1% |
  XC Correction:                             0.612     0.612   0.1% |
 Calculate atomic Hamiltonians:              0.291     0.291   0.0% |
 Communicate:                                0.006     0.006   0.0% |
 Initialize Hamiltonian:                     0.000     0.000   0.0% |
 Poisson:                                    0.003     0.003   0.0% |
 XC 3D grid:                                 0.697     0.697   0.1% |
LCAO initialization:                        27.646     0.188   0.0% |
 LCAO eigensolver:                           4.098     0.002   0.0% |
  Calculate projections:                     0.012     0.012   0.0% |
  DenseAtomicCorrection:                     0.014     0.014   0.0% |
  Distribute overlap matrix:                 0.644     0.644   0.1% |
  Orbital Layouts:                           0.458     0.458   0.0% |
  Potential matrix:                          2.948     2.948   0.2% |
  Sum over cells:                            0.020     0.020   0.0% |
 LCAO to grid:                              23.043    23.043   1.9% ||
 Set positions (LCAO WFS):                   0.316     0.078   0.0% |
  Basic WFS set positions:                   0.002     0.002   0.0% |
  Basis functions set positions:             0.000     0.000   0.0% |
  P tci:                                     0.161     0.161   0.0% |
  ST tci:                                    0.044     0.044   0.0% |
  mktci:                                     0.032     0.032   0.0% |
PWDescriptor:                                0.271     0.271   0.0% |
Redistribute:                                0.010     0.010   0.0% |
SCF-cycle:                                1166.959     1.676   0.1% |
 Davidson:                                1063.819   162.947  13.4% |----|
  Apply H:                                  90.011    87.288   7.2% |--|
   HMM T:                                    2.723     2.723   0.2% |
  Subspace diag:                           160.654     0.071   0.0% |
   calc_h_matrix:                          110.682    20.806   1.7% ||
    Apply H:                                89.876    87.140   7.2% |--|
     HMM T:                                  2.737     2.737   0.2% |
   diagonalize:                             14.183    14.183   1.2% |
   rotate_psi:                              35.717    35.717   2.9% ||
  calc. matrices:                          319.746   140.133  11.5% |----|
   Apply H:                                179.613   174.227  14.3% |-----|
    HMM T:                                   5.386     5.386   0.4% |
  diagonalize:                             256.919   256.919  21.1% |-------|
  rotate_psi:                               73.543    73.543   6.0% |-|
 Density:                                   57.026     0.002   0.0% |
  Atomic density matrices:                   0.482     0.482   0.0% |
  Mix:                                       8.775     8.775   0.7% |
  Multipole moments:                         0.017     0.017   0.0% |
  Pseudo density:                           47.750    44.936   3.7% ||
   Symmetrize density:                       2.814     2.814   0.2% |
 Hamiltonian:                               40.745     0.239   0.0% |
  Atomic:                                   22.225    11.036   0.9% |
   XC Correction:                           11.188    11.188   0.9% |
  Calculate atomic Hamiltonians:             5.182     5.182   0.4% |
  Communicate:                               0.142     0.142   0.0% |
  Poisson:                                   0.071     0.071   0.0% |
  XC 3D grid:                               12.886    12.886   1.1% |
 Orthonormalize:                             3.693     0.004   0.0% |
  calc_s_matrix:                             0.547     0.547   0.0% |
  inverse-cholesky:                          0.294     0.294   0.0% |
  projections:                               1.889     1.889   0.2% |
  rotate_psi_s:                              0.959     0.959   0.1% |
Set symmetry:                                0.001     0.001   0.0% |
Other:                                      10.465    10.465   0.9% |
-------------------------------------------------------------------
Total:                                              1218.278 100.0%

Memory usage: 608.42 MiB
Date: Fri Feb 24 13:57:09 2023
